 Entering Gaussian System, Link 0=/opt/gaussian/16.B.01/g16/g16
 Initial command:
 /opt/gaussian/16.B.01/g16/l1.exe "/scratch/wenqinhe/16946255/Gau-15494.inp" -scrdir="/scratch/wenqinhe/16946255/"
 Entering Link 1 = /opt/gaussian/16.B.01/g16/l1.exe PID=     15495.
  
 Copyright (c) 1988-2017, Gaussian, Inc.  All Rights Reserved.
  
 This is part of the Gaussian(R) 16 program.  It is based on
 the Gaussian(R) 09 system (copyright 2009, Gaussian, Inc.),
 the Gaussian(R) 03 system (copyright 2003, Gaussian, Inc.),
 the Gaussian(R) 98 system (copyright 1998, Gaussian, Inc.),
 the Gaussian(R) 94 system (copyright 1995, Gaussian, Inc.),
 the Gaussian 92(TM) system (copyright 1992, Gaussian, Inc.),
 the Gaussian 90(TM) system (copyright 1990, Gaussian, Inc.),
 the Gaussian 88(TM) system (copyright 1988, Gaussian, Inc.),
 the Gaussian 86(TM) system (copyright 1986, Carnegie Mellon
 University), and the Gaussian 82(TM) system (copyright 1983,
 Carnegie Mellon University). Gaussian is a federally registered
 trademark of Gaussian, Inc.
  
 This software contains proprietary and confidential information,
 including trade secrets, belonging to Gaussian, Inc.
  
 This software is provided under written license and may be
 used, copied, transmitted, or stored only in accord with that
 written license.
  
 The following legend is applicable only to US Government
 contracts under FAR:
  
                    RESTRICTED RIGHTS LEGEND
  
 Use, reproduction and disclosure by the US Government is
 subject to restrictions as set forth in subparagraphs (a)
 and (c) of the Commercial Computer Software - Restricted
 Rights clause in FAR 52.227-19.
  
 Gaussian, Inc.
 340 Quinnipiac St., Bldg. 40, Wallingford CT 06492
  
  
 ---------------------------------------------------------------
 Warning -- This program may not be used in any manner that
 competes with the business of Gaussian, Inc. or will provide
 assistance to any competitor of Gaussian, Inc.  The licensee
 of this program is prohibited from giving any competitor of
 Gaussian, Inc. access to this program.  By using this program,
 the user acknowledges that Gaussian, Inc. is engaged in the
 business of creating and licensing software in the field of
 computational chemistry and represents and warrants to the
 licensee that it is not a competitor of Gaussian, Inc. and that
 it will not use this program in any manner prohibited above.
 ---------------------------------------------------------------
  

 Cite this work as:
 Gaussian 16, Revision B.01,
 M. J. Frisch, G. W. Trucks, H. B. Schlegel, G. E. Scuseria, 
 M. A. Robb, J. R. Cheeseman, G. Scalmani, V. Barone, 
 G. A. Petersson, H. Nakatsuji, X. Li, M. Caricato, A. V. Marenich, 
 J. Bloino, B. G. Janesko, R. Gomperts, B. Mennucci, H. P. Hratchian, 
 J. V. Ortiz, A. F. Izmaylov, J. L. Sonnenberg, D. Williams-Young, 
 F. Ding, F. Lipparini, F. Egidi, J. Goings, B. Peng, A. Petrone, 
 T. Henderson, D. Ranasinghe, V. G. Zakrzewski, J. Gao, N. Rega, 
 G. Zheng, W. Liang, M. Hada, M. Ehara, K. Toyota, R. Fukuda, 
 J. Hasegawa, M. Ishida, T. Nakajima, Y. Honda, O. Kitao, H. Nakai, 
 T. Vreven, K. Throssell, J. A. Montgomery, Jr., J. E. Peralta, 
 F. Ogliaro, M. J. Bearpark, J. J. Heyd, E. N. Brothers, K. N. Kudin, 
 V. N. Staroverov, T. A. Keith, R. Kobayashi, J. Normand, 
 K. Raghavachari, A. P. Rendell, J. C. Burant, S. S. Iyengar, 
 J. Tomasi, M. Cossi, J. M. Millam, M. Klene, C. Adamo, R. Cammi, 
 J. W. Ochterski, R. L. Martin, K. Morokuma, O. Farkas, 
 J. B. Foresman, and D. J. Fox, Gaussian, Inc., Wallingford CT, 2016.
 
 ******************************************
 Gaussian 16:  ES64L-G16RevB.01 20-Dec-2017
                13-Jun-2018 
 ******************************************
 %nprocshared=4
 Will use up to    4 processors via shared memory.
 ----------------------------------------------------------------------
 # opt td=(root=1) b3lyp/6-31+g(d) geom=connectivity density=current em
 piricaldispersion=gd3
 ----------------------------------------------------------------------
 1/18=20,19=15,26=3,38=1,57=2/1,3;
 2/9=110,12=2,17=6,18=5,40=1/2;
 3/5=1,6=6,7=11,11=9,25=1,30=1,71=1,74=-5,124=31/1,2,3,8;
 4//1;
 5/5=2,38=5/2;
 8/6=1,10=2,107=1/1;
 9/8=1,15=2,42=1,70=2/14;
 10/5=4,28=1/2;
 6/7=2,8=2,9=2,10=2,22=-1/1;
 7/12=6,13=5,14=1/1,2,3,16;
 1/18=20,19=15,26=3/3(2);
 2/9=110/2;
 99//99;
 2/9=110/2;
 3/5=1,6=6,7=11,11=9,25=1,30=1,71=1,74=-5,124=31/1,2,3,8;
 4/5=5,16=3,69=1/1;
 5/5=2,38=5/2;
 8/6=1,10=2,107=1/1;
 9/8=1,15=2,42=1,49=4,70=2/14;
 10/5=4,28=1/2;
 7/12=6,13=5,14=1/1,2,3,16;
 1/18=20,19=15,26=3/3(-8);
 2/9=110/2;
 6/7=2,8=2,9=2,10=2,22=-1/1;
 99/9=10/99;
 -------------------
 Title Card Required
 -------------------
 Symbolic Z-matrix:
 Charge =  0 Multiplicity = 1
 C                    -0.24785   0.74838   0.00002 
 C                    -0.24684  -0.67     -0.00005 
 C                     0.93204  -1.41337   0.00003 
 C                     2.12808  -0.71612   0.00019 
 C                     2.15142   0.68915   0.00026 
 C                     0.97978   1.42384   0.00018 
 C                    -1.62024   1.16313  -0.00007 
 C                    -2.38239   0.03096  -0.00031 
 H                     0.9177   -2.49544  -0.00002 
 H                     3.06127  -1.26276   0.00027 
 H                     3.10429   1.20089   0.00039 
 H                     1.01035   2.50554   0.00024 
 H                    -1.99357   2.17279  -0.00004 
 H                    -3.45282  -0.08258  -0.00047 
 H                    -1.87686  -2.02999  -0.00025 
 N                    -1.56207  -1.07775  -0.00022 
 

 GradGradGradGradGradGradGradGradGradGradGradGradGradGradGradGradGradGrad
 Berny optimization.
 Initialization pass.
                           ----------------------------
                           !    Initial Parameters    !
                           ! (Angstroms and Degrees)  !
 --------------------------                            --------------------------
 ! Name  Definition              Value          Derivative Info.                !
 --------------------------------------------------------------------------------
 ! R1    R(1,2)                  1.4184         estimate D2E/DX2                !
 ! R2    R(1,6)                  1.4012         estimate D2E/DX2                !
 ! R3    R(1,7)                  1.4337         estimate D2E/DX2                !
 ! R4    R(2,3)                  1.3937         estimate D2E/DX2                !
 ! R5    R(2,16)                 1.377          estimate D2E/DX2                !
 ! R6    R(3,4)                  1.3844         estimate D2E/DX2                !
 ! R7    R(3,9)                  1.0822         estimate D2E/DX2                !
 ! R8    R(4,5)                  1.4055         estimate D2E/DX2                !
 ! R9    R(4,10)                 1.0815         estimate D2E/DX2                !
 ! R10   R(5,6)                  1.3829         estimate D2E/DX2                !
 ! R11   R(5,11)                 1.0816         estimate D2E/DX2                !
 ! R12   R(6,12)                 1.0821         estimate D2E/DX2                !
 ! R13   R(7,8)                  1.3648         estimate D2E/DX2                !
 ! R14   R(7,13)                 1.0765         estimate D2E/DX2                !
 ! R15   R(8,14)                 1.0764         estimate D2E/DX2                !
 ! R16   R(8,16)                 1.3792         estimate D2E/DX2                !
 ! R17   R(15,16)                1.0029         estimate D2E/DX2                !
 ! A1    A(2,1,6)              118.7792         estimate D2E/DX2                !
 ! A2    A(2,1,7)              106.8564         estimate D2E/DX2                !
 ! A3    A(6,1,7)              134.3645         estimate D2E/DX2                !
 ! A4    A(1,2,3)              122.275          estimate D2E/DX2                !
 ! A5    A(1,2,16)             107.1837         estimate D2E/DX2                !
 ! A6    A(3,2,16)             130.5413         estimate D2E/DX2                !
 ! A7    A(2,3,4)              117.5251         estimate D2E/DX2                !
 ! A8    A(2,3,9)              121.4745         estimate D2E/DX2                !
 ! A9    A(4,3,9)              121.0005         estimate D2E/DX2                !
 ! A10   A(3,4,5)              121.1924         estimate D2E/DX2                !
 ! A11   A(3,4,10)             119.3979         estimate D2E/DX2                !
 ! A12   A(5,4,10)             119.4097         estimate D2E/DX2                !
 ! A13   A(4,5,6)              121.1385         estimate D2E/DX2                !
 ! A14   A(4,5,11)             119.19           estimate D2E/DX2                !
 ! A15   A(6,5,11)             119.6715         estimate D2E/DX2                !
 ! A16   A(1,6,5)              119.0899         estimate D2E/DX2                !
 ! A17   A(1,6,12)             120.4387         estimate D2E/DX2                !
 ! A18   A(5,6,12)             120.4714         estimate D2E/DX2                !
 ! A19   A(1,7,8)              107.1319         estimate D2E/DX2                !
 ! A20   A(1,7,13)             127.1079         estimate D2E/DX2                !
 ! A21   A(8,7,13)             125.7601         estimate D2E/DX2                !
 ! A22   A(7,8,14)             130.0018         estimate D2E/DX2                !
 ! A23   A(7,8,16)             109.5555         estimate D2E/DX2                !
 ! A24   A(14,8,16)            120.4427         estimate D2E/DX2                !
 ! A25   A(2,16,8)             109.2725         estimate D2E/DX2                !
 ! A26   A(2,16,15)            125.5176         estimate D2E/DX2                !
 ! A27   A(8,16,15)            125.2099         estimate D2E/DX2                !
 ! D1    D(6,1,2,3)              0.0002         estimate D2E/DX2                !
 ! D2    D(6,1,2,16)          -179.9993         estimate D2E/DX2                !
 ! D3    D(7,1,2,3)           -179.9988         estimate D2E/DX2                !
 ! D4    D(7,1,2,16)             0.0017         estimate D2E/DX2                !
 ! D5    D(2,1,6,5)             -0.0003         estimate D2E/DX2                !
 ! D6    D(2,1,6,12)          -179.9997         estimate D2E/DX2                !
 ! D7    D(7,1,6,5)            179.9984         estimate D2E/DX2                !
 ! D8    D(7,1,6,12)            -0.001          estimate D2E/DX2                !
 ! D9    D(2,1,7,8)             -0.0049         estimate D2E/DX2                !
 ! D10   D(2,1,7,13)           179.999          estimate D2E/DX2                !
 ! D11   D(6,1,7,8)            179.9963         estimate D2E/DX2                !
 ! D12   D(6,1,7,13)             0.0002         estimate D2E/DX2                !
 ! D13   D(1,2,3,4)              0.0            estimate D2E/DX2                !
 ! D14   D(1,2,3,9)            179.9999         estimate D2E/DX2                !
 ! D15   D(16,2,3,4)           179.9993         estimate D2E/DX2                !
 ! D16   D(16,2,3,9)            -0.0008         estimate D2E/DX2                !
 ! D17   D(1,2,16,8)             0.0021         estimate D2E/DX2                !
 ! D18   D(1,2,16,15)         -179.9961         estimate D2E/DX2                !
 ! D19   D(3,2,16,8)          -179.9973         estimate D2E/DX2                !
 ! D20   D(3,2,16,15)            0.0045         estimate D2E/DX2                !
 ! D21   D(2,3,4,5)             -0.0001         estimate D2E/DX2                !
 ! D22   D(2,3,4,10)           179.9997         estimate D2E/DX2                !
 ! D23   D(9,3,4,5)            180.0            estimate D2E/DX2                !
 ! D24   D(9,3,4,10)            -0.0002         estimate D2E/DX2                !
 ! D25   D(3,4,5,6)              0.0001         estimate D2E/DX2                !
 ! D26   D(3,4,5,11)           179.9998         estimate D2E/DX2                !
 ! D27   D(10,4,5,6)          -179.9997         estimate D2E/DX2                !
 ! D28   D(10,4,5,11)            0.0            estimate D2E/DX2                !
 ! D29   D(4,5,6,1)              0.0001         estimate D2E/DX2                !
 ! D30   D(4,5,6,12)           179.9996         estimate D2E/DX2                !
 ! D31   D(11,5,6,1)          -179.9996         estimate D2E/DX2                !
 ! D32   D(11,5,6,12)           -0.0001         estimate D2E/DX2                !
 ! D33   D(1,7,8,14)          -179.9977         estimate D2E/DX2                !
 ! D34   D(1,7,8,16)             0.0063         estimate D2E/DX2                !
 ! D35   D(13,7,8,14)           -0.0016         estimate D2E/DX2                !
 ! D36   D(13,7,8,16)         -179.9975         estimate D2E/DX2                !
 ! D37   D(7,8,16,2)            -0.0054         estimate D2E/DX2                !
 ! D38   D(7,8,16,15)          179.9928         estimate D2E/DX2                !
 ! D39   D(14,8,16,2)          179.9982         estimate D2E/DX2                !
 ! D40   D(14,8,16,15)          -0.0036         estimate D2E/DX2                !
 --------------------------------------------------------------------------------
 Trust Radius=3.00D-01 FncErr=1.00D-07 GrdErr=1.00D-06 EigMax=2.50D+02 EigMin=1.00D-04
 Number of steps in this run=     94 maximum allowed number of steps=    100.
 GradGradGradGradGradGradGradGradGradGradGradGradGradGradGradGradGradGrad

                          Input orientation:                          
 ---------------------------------------------------------------------
 Center     Atomic      Atomic             Coordinates (Angstroms)
 Number     Number       Type             X           Y           Z
 ---------------------------------------------------------------------
      1          6           0       -0.247851    0.748380    0.000019
      2          6           0       -0.246839   -0.670003   -0.000054
      3          6           0        0.932044   -1.413367    0.000031
      4          6           0        2.128082   -0.716116    0.000191
      5          6           0        2.151424    0.689149    0.000262
      6          6           0        0.979782    1.423836    0.000177
      7          6           0       -1.620235    1.163132   -0.000074
      8          6           0       -2.382385    0.030959   -0.000308
      9          1           0        0.917696   -2.495438   -0.000024
     10          1           0        3.061265   -1.262764    0.000265
     11          1           0        3.104286    1.200891    0.000390
     12          1           0        1.010349    2.505543    0.000240
     13          1           0       -1.993566    2.172786   -0.000038
     14          1           0       -3.452823   -0.082576   -0.000472
     15          1           0       -1.876861   -2.029987   -0.000253
     16          7           0       -1.562068   -1.077753   -0.000224
 ---------------------------------------------------------------------
                    Distance matrix (angstroms):
                    1          2          3          4          5
     1  C    0.000000
     2  C    1.418383   0.000000
     3  C    2.462783   1.393684   0.000000
     4  C    2.791022   2.375369   1.384437   0.000000
     5  C    2.400006   2.756621   2.430527   1.405459   0.000000
     6  C    1.401187   2.426677   2.837605   2.428577   1.382935
     7  C    1.433687   2.290546   3.626634   4.193024   3.801325
     8  C    2.251872   2.247644   3.615455   4.571918   4.581336
     9  H    3.446862   2.165261   1.082166   2.151981   3.415213
    10  H    3.872331   3.360791   2.134541   1.081506   2.153549
    11  H    3.382542   3.838005   3.398968   2.151253   1.081585
    12  H    2.161178   3.415350   3.919692   3.410046   2.145073
    13  H    2.253099   3.336541   4.628141   5.033263   4.402513
    14  H    3.310942   3.259356   4.582364   5.616749   5.657132
    15  H    3.220714   2.122859   2.875790   4.214953   4.860121
    16  N    2.249873   1.376985   2.516591   3.707828   4.112416
                    6          7          8          9         10
     6  C    0.000000
     7  C    2.613055   0.000000
     8  C    3.639268   1.364803   0.000000
     9  H    3.919766   4.452665   4.156106   0.000000
    10  H    3.398587   5.272705   5.595270   2.472726   0.000000
    11  H    2.136170   4.724672   5.610018   4.294651   2.464031
    12  H    1.082139   2.953310   4.199311   5.001839   4.290267
    13  H    3.066223   1.076465   2.176833   5.501614   6.111818
    14  H    4.681588   2.215890   1.076442   4.992328   6.620135
    15  H    4.482109   3.203415   2.122040   2.833054   4.997371
    16  N    3.566364   2.241640   1.379189   2.856407   4.627033
                   11         12         13         14         15
    11  H    0.000000
    12  H    2.467122   0.000000
    13  H    5.189670   3.022289   0.000000
    14  H    6.681539   5.159289   2.686278   0.000000
    15  H    5.937205   5.376524   4.204393   2.505208   0.000000
    16  N    5.192984   4.411047   3.279054   2.136664   1.002918
                   16
    16  N    0.000000
 Stoichiometry    C8H7N
 Framework group  C1[X(C8H7N)]
 Deg. of freedom    42
 Full point group                 C1      NOp   1
 Largest Abelian subgroup         C1      NOp   1
 Largest concise Abelian subgroup C1      NOp   1
                         Standard orientation:                         
 ---------------------------------------------------------------------
 Center     Atomic      Atomic             Coordinates (Angstroms)
 Number     Number       Type             X           Y           Z
 ---------------------------------------------------------------------
      1          6           0       -0.247851    0.748380    0.000019
      2          6           0       -0.246839   -0.670003   -0.000054
      3          6           0        0.932044   -1.413367    0.000031
      4          6           0        2.128082   -0.716116    0.000191
      5          6           0        2.151424    0.689149    0.000262
      6          6           0        0.979782    1.423836    0.000177
      7          6           0       -1.620235    1.163132   -0.000074
      8          6           0       -2.382385    0.030959   -0.000308
      9          1           0        0.917696   -2.495438   -0.000024
     10          1           0        3.061265   -1.262764    0.000265
     11          1           0        3.104286    1.200891    0.000390
     12          1           0        1.010349    2.505543    0.000240
     13          1           0       -1.993566    2.172786   -0.000038
     14          1           0       -3.452823   -0.082577   -0.000472
     15          1           0       -1.876861   -2.029987   -0.000253
     16          7           0       -1.562068   -1.077753   -0.000224
 ---------------------------------------------------------------------
 Rotational constants (GHZ):           3.9070035           1.6425463           1.1563883
 Standard basis: 6-31+G(d) (6D, 7F)
 There are   185 symmetry adapted cartesian basis functions of A   symmetry.
 There are   185 symmetry adapted basis functions of A   symmetry.
   185 basis functions,   316 primitive gaussians,   185 cartesian basis functions
    31 alpha electrons       31 beta electrons
       nuclear repulsion energy       401.2875361709 Hartrees.
 NAtoms=   16 NActive=   16 NUniq=   16 SFac= 1.00D+00 NAtFMM=   60 NAOKFM=F Big=F
 Integral buffers will be    131072 words long.
 Regular integral format.
 Two-electron integral symmetry is turned on.
 Nuclear repulsion after empirical dispersion term =      401.2783458977 Hartrees.
 One-electron integrals computed using PRISM.
 NBasis=   185 RedAO= T EigKep=  1.27D-06  NBF=   185
 NBsUse=   185 1.00D-06 EigRej= -1.00D+00 NBFU=   185
 ExpMin= 4.38D-02 ExpMax= 4.17D+03 ExpMxC= 6.27D+02 IAcc=3 IRadAn=         5 AccDes= 0.00D+00
 Harris functional with IExCor=  402 and IRadAn=       5 diagonalized for initial guess.
 HarFok:  IExCor=  402 AccDes= 0.00D+00 IRadAn=         5 IDoV= 1 UseB2=F ITyADJ=14
 ICtDFT=  3500011 ScaDFX=  1.000000  1.000000  1.000000  1.000000
 FoFCou: FMM=F IPFlag=           0 FMFlag=      100000 FMFlg1=           0
         NFxFlg=           0 DoJE=T BraDBF=F KetDBF=T FulRan=T
         wScrn=  0.000000 ICntrl=       500 IOpCl=  0 I1Cent=   200000004 NGrid=           0
         NMat0=    1 NMatS0=      1 NMatT0=    0 NMatD0=    1 NMtDS0=    0 NMtDT0=    0
 Petite list used in FoFCou.
 Requested convergence on RMS density matrix=1.00D-08 within 128 cycles.
 Requested convergence on MAX density matrix=1.00D-06.
 Requested convergence on             energy=1.00D-06.
 No special actions if energy rises.
 SCF Done:  E(RB3LYP) =  -363.840486290     A.U. after   14 cycles
            NFock= 14  Conv=0.74D-08     -V/T= 2.0093
 DoSCS=F DFT=T ScalE2(SS,OS)=  1.000000  1.000000
 ExpMin= 4.38D-02 ExpMax= 4.17D+03 ExpMxC= 6.27D+02 IAcc=3 IRadAn=         5 AccDes= 0.00D+00
 HarFok:  IExCor=  205 AccDes= 0.00D+00 IRadAn=         5 IDoV=-2 UseB2=F ITyADJ=14
 ICtDFT= 12500011 ScaDFX=  1.000000  1.000000  1.000000  1.000000
 Range of M.O.s used for correlation:    10   185
 NBasis=   185 NAE=    31 NBE=    31 NFC=     9 NFV=     0
 NROrb=    176 NOA=    22 NOB=    22 NVA=   154 NVB=   154

 **** Warning!!: The largest alpha MO coefficient is  0.17816693D+03

 Orbital symmetries:
       Occupied  (A) (A) (A) (A) (A) (A) (A) (A) (A) (A) (A) (A)
                 (A) (A) (A) (A) (A) (A) (A) (A) (A) (A) (A) (A)
                 (A) (A) (A) (A) (A) (A) (A)
       Virtual   (A) (A) (A) (A) (A) (A) (A) (A) (A) (A) (A) (A)
                 (A) (A) (A) (A) (A) (A) (A) (A) (A) (A) (A) (A)
                 (A) (A) (A) (A) (A) (A) (A) (A) (A) (A) (A) (A)
                 (A) (A) (A) (A) (A) (A) (A) (A) (A) (A) (A) (A)
                 (A) (A) (A) (A) (A) (A) (A) (A) (A) (A) (A) (A)
                 (A) (A) (A) (A) (A) (A) (A) (A) (A) (A) (A) (A)
                 (A) (A) (A) (A) (A) (A) (A) (A) (A) (A) (A) (A)
                 (A) (A) (A) (A) (A) (A) (A) (A) (A) (A) (A) (A)
                 (A) (A) (A) (A) (A) (A) (A) (A) (A) (A) (A) (A)
                 (A) (A) (A) (A) (A) (A) (A) (A) (A) (A) (A) (A)
                 (A) (A) (A) (A) (A) (A) (A) (A) (A) (A) (A) (A)
                 (A) (A) (A) (A) (A) (A) (A) (A) (A) (A) (A) (A)
                 (A) (A) (A) (A) (A) (A) (A) (A) (A) (A)
    12 initial guesses have been made.
 Convergence on wavefunction:    0.000001000000000
 Iteration     1 Dimension    12 NMult     0 NNew     12
 CISAX will form    12 AO SS matrices at one time.
 New state      1 was old state      2
 New state      2 was old state      3
 New state      3 was old state      4
 Iteration     2 Dimension    18 NMult    12 NNew      6
 Iteration     3 Dimension    24 NMult    18 NNew      6
 Iteration     4 Dimension    30 NMult    24 NNew      6
 No map to state      2
 New state      3 was old state      2
 Iteration     5 Dimension    36 NMult    30 NNew      6
 New state      1 was old state      2
 New state      2 was old state      1
 Iteration     6 Dimension    42 NMult    36 NNew      6
 Iteration     7 Dimension    48 NMult    42 NNew      6
 Iteration     8 Dimension    54 NMult    48 NNew      6
 Iteration     9 Dimension    60 NMult    54 NNew      6
 Iteration    10 Dimension    66 NMult    60 NNew      6
 Iteration    11 Dimension    70 NMult    66 NNew      4
 Iteration    12 Dimension    74 NMult    70 NNew      4
 Iteration    13 Dimension    76 NMult    74 NNew      2
 ***********************************************************************
 Excited states from <AA,BB:AA,BB> singles matrix:
 ***********************************************************************
 
 Ground to excited state transition densities written to RWF  633
 Ground to excited state transition electric dipole moments (Au):
       state          X           Y           Z        Dip. S.      Osc.
         1         0.5522      0.6143      0.0001      0.6822      0.0796
         2         0.0001      0.0001     -0.1323      0.0175      0.0021
         3         0.5343     -0.1127      0.0001      0.2982      0.0359
 Ground to excited state transition velocity dipole moments (Au):
       state          X           Y           Z        Dip. S.      Osc.
         1        -0.0875     -0.1162     -0.0000      0.0212      0.0806
         2        -0.0000     -0.0000      0.0139      0.0002      0.0007
         3        -0.0910      0.0212     -0.0000      0.0087      0.0322
 Ground to excited state transition magnetic dipole moments (Au):
       state          X           Y           Z
         1        -0.0000     -0.0000     -0.1928
         2         0.1251      0.0610     -0.0000
         3        -0.0000     -0.0000      0.0271
 Ground to excited state transition velocity quadrupole moments (Au):
       state          XX          YY          ZZ          XY          XZ          YZ
         1         0.1915     -0.1100      0.0139     -0.0550      0.0000     -0.0000
         2         0.0000     -0.0000      0.0000     -0.0000     -0.0532      0.0538
         3         0.0713     -0.1058      0.0276     -0.0012      0.0000     -0.0000
 <0|del|b> * <b|rxdel|0> + <0|del|b> * <b|delr+rdel|0>
 Rotatory Strengths (R) in cgs (10**-40 erg-esu-cm/Gauss)
       state          XX          YY          ZZ    R(velocity)    E-M Angle
         1         0.0230      0.0119     -0.0069      0.0093       90.00
         2        -0.0041     -0.0040     -0.0020     -0.0034       90.00
         3        -0.0015      0.0030      0.0006      0.0007       90.00
 1/2[<0|r|b>*<b|rxdel|0> + (<0|rxdel|b>*<b|r|0>)*]
 Rotatory Strengths (R) in cgs (10**-40 erg-esu-cm/Gauss)
       state          XX          YY          ZZ     R(length)
         1         0.0033      0.0089      0.0167      0.0096
         2        -0.0072     -0.0038     -0.0002     -0.0037
         3         0.0047     -0.0011     -0.0012      0.0008
  1/2[<0|del|b>*<b|r|0> + (<0|r|b>*<b|del|0>)*] (Au)
       state          X           Y           Z        Dip. S.   Osc.(frdel)
         1        -0.0483     -0.0714     -0.0000      0.1197      0.0798
         2        -0.0000     -0.0000     -0.0018      0.0018      0.0012
         3        -0.0486     -0.0024     -0.0000      0.0510      0.0340

 Excitation energies and oscillator strengths:
 
 Excited State   1:      Singlet-A      4.7627 eV  260.33 nm  f=0.0796  <S**2>=0.000
      30 -> 32        -0.12712
      30 -> 35         0.15165
      31 -> 32         0.66389
 This state for optimization and/or second-order correction.
 Total Energy, E(TD-HF/TD-DFT) =  -363.665461444    
 Copying the excited state density for this state as the 1-particle RhoCI density.
 
 Excited State   2:      Singlet-A      4.8333 eV  256.52 nm  f=0.0021  <S**2>=0.000
      31 -> 33         0.70418
 
 Excited State   3:      Singlet-A      4.9134 eV  252.34 nm  f=0.0359  <S**2>=0.000
      30 -> 32         0.56574
      31 -> 32         0.10248
      31 -> 35        -0.40167
 SavETr:  write IOETrn=   770 NScale= 10 NData=  16 NLR=1 NState=    3 LETran=      64.
          IDoAtm=1111111111111111
          Differentiating once with respect to electric field.
                with respect to dipole field.
          Differentiating once with respect to nuclear coordinates.
          There are     1 degrees of freedom in the 1st order CPHF.  IDoFFX=0 NUNeed=     1.
 LinEq1:  Iter=  0 NonCon=     1 RMS=1.23D-02 Max=3.57D-01 NDo=     1
 AX will form     1 AO Fock derivatives at one time.
 LinEq1:  Iter=  1 NonCon=     1 RMS=4.83D-03 Max=1.15D-01 NDo=     1
 LinEq1:  Iter=  2 NonCon=     1 RMS=4.06D-03 Max=1.25D-01 NDo=     1
 LinEq1:  Iter=  3 NonCon=     1 RMS=1.71D-03 Max=4.40D-02 NDo=     1
 LinEq1:  Iter=  4 NonCon=     1 RMS=1.23D-03 Max=4.26D-02 NDo=     1
 LinEq1:  Iter=  5 NonCon=     1 RMS=5.83D-04 Max=1.03D-02 NDo=     1
 LinEq1:  Iter=  6 NonCon=     1 RMS=3.65D-04 Max=1.26D-02 NDo=     1
 LinEq1:  Iter=  7 NonCon=     1 RMS=1.91D-04 Max=4.86D-03 NDo=     1
 LinEq1:  Iter=  8 NonCon=     1 RMS=1.15D-04 Max=2.26D-03 NDo=     1
 LinEq1:  Iter=  9 NonCon=     1 RMS=5.36D-05 Max=1.23D-03 NDo=     1
 LinEq1:  Iter= 10 NonCon=     1 RMS=2.76D-05 Max=5.63D-04 NDo=     1
 LinEq1:  Iter= 11 NonCon=     1 RMS=1.26D-05 Max=2.26D-04 NDo=     1
 LinEq1:  Iter= 12 NonCon=     1 RMS=7.31D-06 Max=1.28D-04 NDo=     1
 LinEq1:  Iter= 13 NonCon=     1 RMS=2.23D-06 Max=4.26D-05 NDo=     1
 LinEq1:  Iter= 14 NonCon=     1 RMS=1.22D-06 Max=1.57D-05 NDo=     1
 LinEq1:  Iter= 15 NonCon=     1 RMS=2.60D-07 Max=4.16D-06 NDo=     1
 LinEq1:  Iter= 16 NonCon=     1 RMS=5.23D-08 Max=8.37D-07 NDo=     1
 LinEq1:  Iter= 17 NonCon=     1 RMS=2.94D-08 Max=6.58D-07 NDo=     1
 LinEq1:  Iter= 18 NonCon=     1 RMS=1.18D-08 Max=2.60D-07 NDo=     1
 LinEq1:  Iter= 19 NonCon=     1 RMS=2.44D-09 Max=4.84D-08 NDo=     1
 LinEq1:  Iter= 20 NonCon=     1 RMS=4.61D-10 Max=5.40D-09 NDo=     1
 LinEq1:  Iter= 21 NonCon=     0 RMS=7.24D-11 Max=5.98D-10 NDo=     1
 Linear equations converged to 1.000D-10 1.000D-09 after    21 iterations.
 End of Minotr F.D. properties file   721 does not exist.
 End of Minotr F.D. properties file   722 does not exist.
 End of Minotr F.D. properties file   788 does not exist.

 **********************************************************************

            Population analysis using the CI Density.

 **********************************************************************

 Orbital symmetries:
       Occupied  (A) (A) (A) (A) (A) (A) (A) (A) (A) (A) (A) (A)
                 (A) (A) (A) (A) (A) (A) (A) (A) (A) (A) (A) (A)
                 (A) (A) (A) (A) (A) (A) (A)
       Virtual   (A) (A) (A) (A) (A) (A) (A) (A) (A) (A) (A) (A)
                 (A) (A) (A) (A) (A) (A) (A) (A) (A) (A) (A) (A)
                 (A) (A) (A) (A) (A) (A) (A) (A) (A) (A) (A) (A)
                 (A) (A) (A) (A) (A) (A) (A) (A) (A) (A) (A) (A)
                 (A) (A) (A) (A) (A) (A) (A) (A) (A) (A) (A) (A)
                 (A) (A) (A) (A) (A) (A) (A) (A) (A) (A) (A) (A)
                 (A) (A) (A) (A) (A) (A) (A) (A) (A) (A) (A) (A)
                 (A) (A) (A) (A) (A) (A) (A) (A) (A) (A) (A) (A)
                 (A) (A) (A) (A) (A) (A) (A) (A) (A) (A) (A) (A)
                 (A) (A) (A) (A) (A) (A) (A) (A) (A) (A) (A) (A)
                 (A) (A) (A) (A) (A) (A) (A) (A) (A) (A) (A) (A)
                 (A) (A) (A) (A) (A) (A) (A) (A) (A) (A) (A) (A)
                 (A) (A) (A) (A) (A) (A) (A) (A) (A) (A)
 The electronic state is 1-A.
 Alpha  occ. eigenvalues --  -14.38635 -10.22453 -10.22184 -10.19190 -10.18718
 Alpha  occ. eigenvalues --  -10.18641 -10.18636 -10.18148 -10.17939  -0.98725
 Alpha  occ. eigenvalues --   -0.84402  -0.78748  -0.74015  -0.72191  -0.62915
 Alpha  occ. eigenvalues --   -0.60006  -0.58642  -0.54505  -0.48777  -0.47583
 Alpha  occ. eigenvalues --   -0.44243  -0.43442  -0.42572  -0.41623  -0.39684
 Alpha  occ. eigenvalues --   -0.36015  -0.34015  -0.33804  -0.28276  -0.22716
 Alpha  occ. eigenvalues --   -0.21042
 Alpha virt. eigenvalues --   -0.01814  -0.00382   0.01537   0.01783   0.02131
 Alpha virt. eigenvalues --    0.03660   0.03774   0.04403   0.05750   0.06009
 Alpha virt. eigenvalues --    0.06527   0.06633   0.08446   0.08818   0.10612
 Alpha virt. eigenvalues --    0.10692   0.11054   0.12528   0.13477   0.13696
 Alpha virt. eigenvalues --    0.15378   0.15699   0.16524   0.16649   0.17133
 Alpha virt. eigenvalues --    0.18211   0.18620   0.18819   0.19648   0.19928
 Alpha virt. eigenvalues --    0.20165   0.20263   0.21784   0.22407   0.23041
 Alpha virt. eigenvalues --    0.23458   0.23636   0.24550   0.25556   0.26037
 Alpha virt. eigenvalues --    0.27079   0.27367   0.27818   0.29714   0.30236
 Alpha virt. eigenvalues --    0.30937   0.31609   0.33210   0.35134   0.36788
 Alpha virt. eigenvalues --    0.37964   0.40021   0.43544   0.45041   0.51366
 Alpha virt. eigenvalues --    0.58146   0.62368   0.67099   0.67579   0.69554
 Alpha virt. eigenvalues --    0.71367   0.71753   0.72956   0.73317   0.73921
 Alpha virt. eigenvalues --    0.74948   0.75398   0.77428   0.78840   0.79673
 Alpha virt. eigenvalues --    0.81326   0.84990   0.88954   0.89552   0.90676
 Alpha virt. eigenvalues --    0.93040   0.93696   0.94822   0.95702   0.97953
 Alpha virt. eigenvalues --    0.99811   1.02667   1.04495   1.05979   1.09422
 Alpha virt. eigenvalues --    1.11325   1.11707   1.16935   1.17931   1.20515
 Alpha virt. eigenvalues --    1.22358   1.23952   1.25222   1.31584   1.32593
 Alpha virt. eigenvalues --    1.34539   1.36605   1.41613   1.41918   1.44810
 Alpha virt. eigenvalues --    1.46452   1.47167   1.50213   1.50773   1.53732
 Alpha virt. eigenvalues --    1.58835   1.65085   1.79069   1.84640   1.88503
 Alpha virt. eigenvalues --    1.89643   1.92245   1.94106   1.99562   1.99938
 Alpha virt. eigenvalues --    2.01046   2.06515   2.10144   2.14491   2.17425
 Alpha virt. eigenvalues --    2.17997   2.20019   2.25482   2.26648   2.27147
 Alpha virt. eigenvalues --    2.28912   2.31739   2.38716   2.41498   2.44922
 Alpha virt. eigenvalues --    2.55140   2.56546   2.64060   2.66218   2.67714
 Alpha virt. eigenvalues --    2.70212   2.73872   2.81279   2.84991   2.86056
 Alpha virt. eigenvalues --    2.95924   2.98340   3.11722   3.24595   3.45302
 Alpha virt. eigenvalues --    4.14945   4.25585   4.28599   4.32140   4.35697
 Alpha virt. eigenvalues --    4.39348   4.47693   4.51633   4.78781
          Condensed to atoms (all electrons):
               1          2          3          4          5          6
     1  C   15.766121  -2.744518  -3.805294  -0.712825  -0.048914  -1.065407
     2  C   -2.744518  14.307924  -3.956167   0.603277  -0.643247  -0.819631
     3  C   -3.805294  -3.956167  15.132879  -0.497887   0.113166  -2.850729
     4  C   -0.712825   0.603277  -0.497887   6.034091   0.599458   0.448401
     5  C   -0.048914  -0.643247   0.113166   0.599458   5.542185  -0.079498
     6  C   -1.065407  -0.819631  -2.850729   0.448401  -0.079498  13.543607
     7  C   -5.917262   0.745176   3.931300  -0.361026   0.223711  -3.619670
     8  C    2.159744  -0.299120  -1.457807   0.048392  -0.095374   1.020076
     9  H    0.026034  -0.002498   0.245197   0.019358   0.029282  -0.027738
    10  H   -0.007436   0.036942  -0.036922   0.298313  -0.021368   0.028091
    11  H    0.039457  -0.026747   0.035684  -0.019363   0.302673  -0.039531
    12  H    0.046640   0.043127  -0.051382   0.028874  -0.001737   0.279922
    13  H   -0.054597   0.049308   0.005476   0.000912   0.001299  -0.014062
    14  H   -0.070422   0.086997   0.027138   0.000716   0.000477  -0.024820
    15  H    0.169064  -0.073309  -0.123605  -0.011636  -0.001646   0.026982
    16  N    0.810097  -0.409026  -0.474641   0.001740  -0.014998   0.122866
               7          8          9         10         11         12
     1  C   -5.917262   2.159744   0.026034  -0.007436   0.039457   0.046640
     2  C    0.745176  -0.299120  -0.002498   0.036942  -0.026747   0.043127
     3  C    3.931300  -1.457807   0.245197  -0.036922   0.035684  -0.051382
     4  C   -0.361026   0.048392   0.019358   0.298313  -0.019363   0.028874
     5  C    0.223711  -0.095374   0.029282  -0.021368   0.302673  -0.001737
     6  C   -3.619670   1.020076  -0.027738   0.028091  -0.039531   0.279922
     7  C   14.000810  -2.912423  -0.010813  -0.002364   0.003863  -0.068527
     8  C   -2.912423   7.055681   0.009983   0.001745  -0.000141   0.005091
     9  H   -0.010813   0.009983   0.552183  -0.005007  -0.000173   0.000020
    10  H   -0.002364   0.001745  -0.005007   0.543837  -0.005020  -0.000172
    11  H    0.003863  -0.000141  -0.000173  -0.005020   0.544240  -0.004952
    12  H   -0.068527   0.005091   0.000020  -0.000172  -0.004952   0.547395
    13  H    0.347301  -0.051898   0.000002   0.000000  -0.000002   0.001604
    14  H   -0.012080   0.355027   0.000003  -0.000000  -0.000000  -0.000001
    15  H    0.014061  -0.039317   0.002423  -0.000003  -0.000000   0.000005
    16  N   -0.625960   0.551483  -0.009026  -0.000552   0.000290  -0.001068
              13         14         15         16
     1  C   -0.054597  -0.070422   0.169064   0.810097
     2  C    0.049308   0.086997  -0.073309  -0.409026
     3  C    0.005476   0.027138  -0.123605  -0.474641
     4  C    0.000912   0.000716  -0.011636   0.001740
     5  C    0.001299   0.000477  -0.001646  -0.014998
     6  C   -0.014062  -0.024820   0.026982   0.122866
     7  C    0.347301  -0.012080   0.014061  -0.625960
     8  C   -0.051898   0.355027  -0.039317   0.551483
     9  H    0.000002   0.000003   0.002423  -0.009026
    10  H    0.000000  -0.000000  -0.000003  -0.000552
    11  H   -0.000002  -0.000000  -0.000000   0.000290
    12  H    0.001604  -0.000001   0.000005  -0.001068
    13  H    0.495298  -0.000916  -0.000075   0.006510
    14  H   -0.000916   0.487518  -0.002413  -0.056712
    15  H   -0.000075  -0.002413   0.346022   0.260768
    16  N    0.006510  -0.056712   0.260768   7.252064
 Mulliken charges:
               1
     1  C    1.409519
     2  C   -0.898489
     3  C   -0.236405
     4  C   -0.480796
     5  C    0.094531
     6  C   -0.928861
     7  C    0.263901
     8  C   -0.351141
     9  H    0.170768
    10  H    0.169916
    11  H    0.169723
    12  H    0.175161
    13  H    0.213840
    14  H    0.209488
    15  H    0.432679
    16  N   -0.413834
 Sum of Mulliken charges =  -0.00000
 Mulliken charges with hydrogens summed into heavy atoms:
               1
     1  C    1.409519
     2  C   -0.898489
     3  C   -0.065637
     4  C   -0.310881
     5  C    0.264253
     6  C   -0.753699
     7  C    0.477742
     8  C   -0.141653
    16  N    0.018845
 Electronic spatial extent (au):  <R**2>=           1009.4938
 Charge=             -0.0000 electrons
 Dipole moment (field-independent basis, Debye):
    X=             -4.0519    Y=             -1.0972    Z=             -0.0001  Tot=              4.1978
 Quadrupole moment (field-independent basis, Debye-Ang):
   XX=            -46.7995   YY=            -46.6292   ZZ=            -60.6913
   XY=              2.4865   XZ=              0.0009   YZ=              0.0005
 Traceless Quadrupole moment (field-independent basis, Debye-Ang):
   XX=              4.5738   YY=              4.7441   ZZ=             -9.3180
   XY=              2.4865   XZ=              0.0009   YZ=              0.0005
 Octapole moment (field-independent basis, Debye-Ang**2):
  XXX=            -24.1330  YYY=             -8.6369  ZZZ=              0.0009  XYY=            -16.2232
  XXY=             -5.3741  XXZ=             -0.0005  XZZ=             -4.5487  YZZ=             -0.6509
  YYZ=              0.0007  XYZ=             -0.0003
 Hexadecapole moment (field-independent basis, Debye-Ang**3):
 XXXX=           -869.8342 YYYY=           -401.8409 ZZZZ=            -91.0678 XXXY=             18.4715
 XXXZ=             -0.0353 YYYX=             15.5087 YYYZ=             -0.0071 ZZZX=             -0.0613
 ZZZY=             -0.0138 XXYY=           -197.0990 XXZZ=           -203.6257 YYZZ=           -105.1794
 XXYZ=             -0.0000 YYXZ=             -0.0120 ZZXY=              1.7891
 N-N= 4.012783458977D+02 E-N=-1.644876165573D+03  KE= 3.606020509755D+02
 Calling FoFJK, ICntrl=  10005127 FMM=F ISym2X=0 I1Cent= 0 IOpClX= 0 NMat=1 NMatS=1 NMatT=0.
 ***** Axes restored to original set *****
 -------------------------------------------------------------------
 Center     Atomic                   Forces (Hartrees/Bohr)
 Number     Number              X              Y              Z
 -------------------------------------------------------------------
      1        6          -0.012054831   -0.017954162    0.000002378
      2        6           0.014244832    0.019566380    0.000004498
      3        6          -0.036238261   -0.036087130   -0.000006951
      4        6           0.042141006    0.039493879    0.000006954
      5        6           0.027351836   -0.035229756    0.000001316
      6        6          -0.011792715    0.036543937    0.000000509
      7        6           0.034463127    0.023610101   -0.000001653
      8        6          -0.040074011   -0.050172914   -0.000002716
      9        1          -0.001029845   -0.003392240   -0.000000062
     10        1           0.003298941   -0.001174192    0.000000352
     11        1           0.003248259    0.001445829    0.000000332
     12        1          -0.000488477    0.003474587    0.000000216
     13        1          -0.001692889    0.003639617    0.000000146
     14        1          -0.003104269   -0.000729089    0.000000930
     15        1          -0.003214675   -0.007628984   -0.000003094
     16        7          -0.015058028    0.024594138   -0.000003155
 -------------------------------------------------------------------
 Cartesian Forces:  Max     0.050172914 RMS     0.018991745

 GradGradGradGradGradGradGradGradGradGradGradGradGradGradGradGradGradGrad
 Berny optimization.
 FormGI is forming the generalized inverse of G from B-inverse, IUseBI=4.
 Internal  Forces:  Max     0.052628997 RMS     0.010413320
 Search for a local minimum.
 Step number   1 out of a maximum of   94
 All quantities printed in internal units (Hartrees-Bohrs-Radians)
 Mixed Optimization -- RFO/linear search
 Second derivative matrix not updated -- first step.
 ITU=  0
     Eigenvalues ---    0.01850   0.01928   0.01981   0.02010   0.02065
     Eigenvalues ---    0.02110   0.02145   0.02149   0.02169   0.02207
     Eigenvalues ---    0.02231   0.02245   0.02335   0.16000   0.16000
     Eigenvalues ---    0.16000   0.16000   0.16000   0.16000   0.16000
     Eigenvalues ---    0.22000   0.22188   0.22662   0.24011   0.24651
     Eigenvalues ---    0.35734   0.35737   0.35804   0.35813   0.36425
     Eigenvalues ---    0.36428   0.37003   0.38389   0.42618   0.43438
     Eigenvalues ---    0.45758   0.46626   0.47179   0.47424   0.47526
     Eigenvalues ---    0.48083   0.50903
 RFO step:  Lambda=-1.96871135D-02 EMin= 1.84978420D-02
 Linear search not attempted -- first point.
 Iteration  1 RMS(Cart)=  0.03310133 RMS(Int)=  0.00031941
 Iteration  2 RMS(Cart)=  0.00039171 RMS(Int)=  0.00013618
 Iteration  3 RMS(Cart)=  0.00000010 RMS(Int)=  0.00013618
 Variable       Old X    -DE/DX   Delta X   Delta X   Delta X     New X
                                 (Linear)    (Quad)   (Total)
    R1        2.68036  -0.00424   0.00000  -0.01564  -0.01591   2.66445
    R2        2.64786   0.02477   0.00000   0.05125   0.05123   2.69909
    R3        2.70927   0.00403   0.00000   0.01006   0.00971   2.71899
    R4        2.63368   0.01230   0.00000   0.02417   0.02414   2.65783
    R5        2.60212   0.02371   0.00000   0.04348   0.04370   2.64582
    R6        2.61621   0.05263   0.00000   0.10569   0.10571   2.72192
    R7        2.04500   0.00341   0.00000   0.00903   0.00903   2.05403
    R8        2.65593  -0.01031   0.00000  -0.01993  -0.01989   2.63604
    R9        2.04375   0.00344   0.00000   0.00910   0.00910   2.05285
   R10        2.61337   0.03912   0.00000   0.07849   0.07851   2.69188
   R11        2.04390   0.00355   0.00000   0.00939   0.00939   2.05329
   R12        2.04495   0.00346   0.00000   0.00918   0.00918   2.05412
   R13        2.57910   0.04607   0.00000   0.08886   0.08888   2.66798
   R14        2.03422   0.00400   0.00000   0.01042   0.01042   2.04464
   R15        2.03418   0.00316   0.00000   0.00824   0.00824   2.04242
   R16        2.60629  -0.01357   0.00000  -0.02466  -0.02429   2.58200
   R17        1.89524   0.00825   0.00000   0.01679   0.01679   1.91203
    A1        2.07309   0.00506   0.00000   0.01560   0.01578   2.08887
    A2        1.86500  -0.00296   0.00000  -0.01462  -0.01515   1.84985
    A3        2.34510  -0.00210   0.00000  -0.00098  -0.00063   2.34447
    A4        2.13410   0.00432   0.00000   0.01539   0.01531   2.14941
    A5        1.87071   0.00180   0.00000  -0.00208  -0.00208   1.86863
    A6        2.27837  -0.00612   0.00000  -0.01331  -0.01323   2.26514
    A7        2.05120  -0.00388   0.00000  -0.01745  -0.01751   2.03369
    A8        2.12013   0.00093   0.00000   0.00313   0.00316   2.12328
    A9        2.11186   0.00294   0.00000   0.01433   0.01436   2.12621
   A10        2.11521  -0.00105   0.00000   0.00073   0.00073   2.11594
   A11        2.08389   0.00119   0.00000   0.00336   0.00336   2.08725
   A12        2.08409  -0.00015   0.00000  -0.00409  -0.00409   2.08000
   A13        2.11427   0.00043   0.00000   0.00707   0.00708   2.12134
   A14        2.08026  -0.00048   0.00000  -0.00503  -0.00503   2.07523
   A15        2.08866   0.00005   0.00000  -0.00204  -0.00205   2.08662
   A16        2.07851  -0.00489   0.00000  -0.02133  -0.02138   2.05713
   A17        2.10205   0.00185   0.00000   0.00733   0.00735   2.10940
   A18        2.10262   0.00305   0.00000   0.01401   0.01403   2.11665
   A19        1.86981   0.00717   0.00000   0.03630   0.03598   1.90578
   A20        2.21845  -0.00325   0.00000  -0.01630  -0.01614   2.20231
   A21        2.19493  -0.00391   0.00000  -0.02000  -0.01983   2.17509
   A22        2.26896   0.00912   0.00000   0.03425   0.03407   2.30303
   A23        1.91210  -0.01743   0.00000  -0.06398  -0.06363   1.84847
   A24        2.10212   0.00831   0.00000   0.02974   0.02956   2.13168
   A25        1.90717   0.01142   0.00000   0.04438   0.04488   1.95204
   A26        2.19070  -0.00509   0.00000  -0.01872  -0.01897   2.17172
   A27        2.18532  -0.00633   0.00000  -0.02566  -0.02590   2.15942
    D1        0.00000  -0.00000   0.00000  -0.00001  -0.00001  -0.00000
    D2       -3.14158  -0.00000   0.00000  -0.00000  -0.00000  -3.14158
    D3       -3.14157  -0.00000   0.00000  -0.00002  -0.00002   3.14159
    D4        0.00003  -0.00000   0.00000  -0.00002  -0.00002   0.00001
    D5       -0.00000  -0.00000   0.00000  -0.00000  -0.00000  -0.00001
    D6       -3.14159  -0.00000   0.00000  -0.00000  -0.00000  -3.14159
    D7        3.14157   0.00000   0.00000   0.00002   0.00002   3.14158
    D8       -0.00002   0.00000   0.00000   0.00002   0.00002   0.00000
    D9       -0.00009   0.00000   0.00000   0.00007   0.00007  -0.00001
   D10        3.14158   0.00000   0.00000   0.00000   0.00000   3.14158
   D11        3.14153   0.00000   0.00000   0.00005   0.00005   3.14158
   D12        0.00000  -0.00000   0.00000  -0.00002  -0.00002  -0.00001
   D13       -0.00000   0.00000   0.00000   0.00001   0.00002   0.00001
   D14        3.14159  -0.00000   0.00000   0.00000   0.00000   3.14159
   D15        3.14158   0.00000   0.00000   0.00001   0.00001   3.14159
   D16       -0.00001  -0.00000   0.00000  -0.00000  -0.00000  -0.00002
   D17        0.00004  -0.00000   0.00000  -0.00004  -0.00004  -0.00000
   D18       -3.14152  -0.00000   0.00000  -0.00002  -0.00002  -3.14154
   D19       -3.14155  -0.00000   0.00000  -0.00003  -0.00003  -3.14158
   D20        0.00008  -0.00000   0.00000  -0.00001  -0.00001   0.00006
   D21       -0.00000  -0.00000   0.00000  -0.00001  -0.00001  -0.00001
   D22        3.14159  -0.00000   0.00000  -0.00001  -0.00001   3.14158
   D23        3.14159   0.00000   0.00000   0.00000   0.00000  -3.14159
   D24       -0.00000   0.00000   0.00000   0.00001   0.00001   0.00000
   D25        0.00000   0.00000   0.00000  -0.00000  -0.00000   0.00000
   D26        3.14159   0.00000   0.00000   0.00001   0.00001  -3.14159
   D27       -3.14159  -0.00000   0.00000  -0.00000  -0.00000  -3.14159
   D28       -0.00000   0.00000   0.00000   0.00000   0.00000   0.00000
   D29        0.00000   0.00000   0.00000   0.00001   0.00001   0.00001
   D30        3.14159   0.00000   0.00000   0.00001   0.00001  -3.14159
   D31       -3.14159   0.00000   0.00000   0.00000   0.00000  -3.14158
   D32       -0.00000   0.00000   0.00000   0.00000   0.00000  -0.00000
   D33       -3.14155  -0.00000   0.00000  -0.00004  -0.00004   3.14159
   D34        0.00011  -0.00000   0.00000  -0.00010  -0.00010   0.00001
   D35       -0.00003   0.00000   0.00000   0.00003   0.00003  -0.00000
   D36       -3.14155  -0.00000   0.00000  -0.00003  -0.00003  -3.14158
   D37       -0.00009   0.00000   0.00000   0.00009   0.00009  -0.00001
   D38        3.14147   0.00000   0.00000   0.00007   0.00007   3.14153
   D39        3.14156   0.00000   0.00000   0.00004   0.00004  -3.14159
   D40       -0.00006   0.00000   0.00000   0.00002   0.00002  -0.00005
         Item               Value     Threshold  Converged?
 Maximum Force            0.052629     0.000450     NO 
 RMS     Force            0.010413     0.000300     NO 
 Maximum Displacement     0.124199     0.001800     NO 
 RMS     Displacement     0.033055     0.001200     NO 
 Predicted change in Energy=-1.029215D-02
 GradGradGradGradGradGradGradGradGradGradGradGradGradGradGradGradGradGrad

                          Input orientation:                          
 ---------------------------------------------------------------------
 Center     Atomic      Atomic             Coordinates (Angstroms)
 Number     Number       Type             X           Y           Z
 ---------------------------------------------------------------------
      1          6           0       -0.245265    0.753311    0.000013
      2          6           0       -0.250700   -0.656642   -0.000063
      3          6           0        0.923846   -1.430318    0.000017
      4          6           0        2.169923   -0.707836    0.000202
      5          6           0        2.197404    0.686827    0.000280
      6          6           0        0.998324    1.455822    0.000183
      7          6           0       -1.626895    1.154959   -0.000112
      8          6           0       -2.444801    0.004171   -0.000280
      9          1           0        0.891264   -2.516775   -0.000044
     10          1           0        3.107809   -1.255985    0.000282
     11          1           0        3.158788    1.193125    0.000418
     12          1           0        1.024836    2.542493    0.000244
     13          1           0       -1.996484    2.171857   -0.000084
     14          1           0       -3.518546   -0.119137   -0.000406
     15          1           0       -1.896459   -2.026855   -0.000284
     16          7           0       -1.590742   -1.062343   -0.000239
 ---------------------------------------------------------------------
                    Distance matrix (angstroms):
                    1          2          3          4          5
     1  C    0.000000
     2  C    1.409964   0.000000
     3  C    2.476905   1.406461   0.000000
     4  C    2.822780   2.421164   1.440378   0.000000
     5  C    2.443574   2.792512   2.470679   1.394934   0.000000
     6  C    1.428299   2.454092   2.887101   2.460500   1.424480
     7  C    1.438826   2.275040   3.631795   4.229164   3.852844
     8  C    2.323611   2.291452   3.661357   4.669328   4.692130
     9  H    3.461960   2.182700   1.086946   2.215227   3.459635
    10  H    3.909013   3.411569   2.190911   1.086324   2.145544
    11  H    3.432348   3.878949   3.446363   2.142780   1.086552
    12  H    2.194158   3.444046   3.974094   3.446138   2.195088
    13  H    2.253672   3.323879   4.637240   5.064739   4.449046
    14  H    3.387556   3.311756   4.631851   5.718850   5.772492
    15  H    3.233538   2.141496   2.882703   4.274959   4.911597
    16  N    2.259847   1.400110   2.541370   3.777337   4.172487
                    6          7          8          9         10
     6  C    0.000000
     7  C    2.642403   0.000000
     8  C    3.736630   1.411837   0.000000
     9  H    3.974040   4.452275   4.181447   0.000000
    10  H    3.435670   5.313198   5.693810   2.550032   0.000000
    11  H    2.176376   4.785835   5.728335   4.347991   2.449641
    12  H    1.086994   2.992812   4.299006   5.061031   4.332115
    13  H    3.079218   1.081979   2.213561   5.506575   6.148489
    14  H    4.783578   2.280716   1.080803   5.019471   6.723170
    15  H    4.528666   3.193212   2.103746   2.830445   5.063294
    16  N    3.611707   2.217596   1.366334   2.876757   4.702541
                   11         12         13         14         15
    11  H    0.000000
    12  H    2.524787   0.000000
    13  H    5.247356   3.043969   0.000000
    14  H    6.805059   5.265605   2.750514   0.000000
    15  H    5.993646   5.423367   4.199904   2.504108   0.000000
    16  N    5.257868   4.453773   3.259552   2.146174   1.011804
                   16
    16  N    0.000000
 Stoichiometry    C8H7N
 Framework group  C1[X(C8H7N)]
 Deg. of freedom    42
 Full point group                 C1      NOp   1
 Largest Abelian subgroup         C1      NOp   1
 Largest concise Abelian subgroup C1      NOp   1
                         Standard orientation:                         
 ---------------------------------------------------------------------
 Center     Atomic      Atomic             Coordinates (Angstroms)
 Number     Number       Type             X           Y           Z
 ---------------------------------------------------------------------
      1          6           0       -0.236223    0.754190    0.000015
      2          6           0       -0.257596   -0.655612   -0.000061
      3          6           0        0.908128   -1.442516    0.000019
      4          6           0        2.162293   -0.734167    0.000204
      5          6           0        2.205539    0.660097    0.000282
      6          6           0        1.015229    1.442598    0.000185
      7          6           0       -1.613223    1.171430   -0.000110
      8          6           0       -2.444086    0.029962   -0.000278
      9          1           0        0.863267   -2.528536   -0.000042
     10          1           0        3.093923   -1.292884    0.000284
     11          1           0        3.172585    1.155493    0.000419
     12          1           0        1.054023    2.528899    0.000246
     13          1           0       -1.971294    2.192442   -0.000083
     14          1           0       -3.519157   -0.081200   -0.000404
     15          1           0       -1.918739   -2.007133   -0.000282
     16          7           0       -1.602139   -1.046138   -0.000238
 ---------------------------------------------------------------------
 Rotational constants (GHZ):           3.8798701           1.5851002           1.1253461
 Standard basis: 6-31+G(d) (6D, 7F)
 There are   185 symmetry adapted cartesian basis functions of A   symmetry.
 There are   185 symmetry adapted basis functions of A   symmetry.
   185 basis functions,   316 primitive gaussians,   185 cartesian basis functions
    31 alpha electrons       31 beta electrons
       nuclear repulsion energy       396.6262103779 Hartrees.
 NAtoms=   16 NActive=   16 NUniq=   16 SFac= 1.00D+00 NAtFMM=   60 NAOKFM=F Big=F
 Integral buffers will be    131072 words long.
 Regular integral format.
 Two-electron integral symmetry is turned on.
 Nuclear repulsion after empirical dispersion term =      396.6170234735 Hartrees.
 One-electron integrals computed using PRISM.
 NBasis=   185 RedAO= T EigKep=  1.36D-06  NBF=   185
 NBsUse=   185 1.00D-06 EigRej= -1.00D+00 NBFU=   185
 Initial guess from the checkpoint file:  "/scratch/wenqinhe/16946255/Gau-15495.chk"
 B after Tr=    -0.000000    0.000000   -0.000000
         Rot=    0.999984   -0.000000    0.000000    0.005651 Ang=  -0.65 deg.
 ExpMin= 4.38D-02 ExpMax= 4.17D+03 ExpMxC= 6.27D+02 IAcc=3 IRadAn=         5 AccDes= 0.00D+00
 Harris functional with IExCor=  402 and IRadAn=       5 diagonalized for initial guess.
 HarFok:  IExCor=  402 AccDes= 0.00D+00 IRadAn=         5 IDoV= 1 UseB2=F ITyADJ=14
 ICtDFT=  3500011 ScaDFX=  1.000000  1.000000  1.000000  1.000000
 FoFCou: FMM=F IPFlag=           0 FMFlag=      100000 FMFlg1=           0
         NFxFlg=           0 DoJE=T BraDBF=F KetDBF=T FulRan=T
         wScrn=  0.000000 ICntrl=       500 IOpCl=  0 I1Cent=   200000004 NGrid=           0
         NMat0=    1 NMatS0=      1 NMatT0=    0 NMatD0=    1 NMtDS0=    0 NMtDT0=    0
 Petite list used in FoFCou.
 Requested convergence on RMS density matrix=1.00D-08 within 128 cycles.
 Requested convergence on MAX density matrix=1.00D-06.
 Requested convergence on             energy=1.00D-06.
 No special actions if energy rises.
 SCF Done:  E(RB3LYP) =  -363.834306901     A.U. after   13 cycles
            NFock= 13  Conv=0.81D-08     -V/T= 2.0107
 DoSCS=F DFT=T ScalE2(SS,OS)=  1.000000  1.000000
 ExpMin= 4.38D-02 ExpMax= 4.17D+03 ExpMxC= 6.27D+02 IAcc=3 IRadAn=         5 AccDes= 0.00D+00
 HarFok:  IExCor=  205 AccDes= 0.00D+00 IRadAn=         5 IDoV=-2 UseB2=F ITyADJ=14
 ICtDFT= 12500011 ScaDFX=  1.000000  1.000000  1.000000  1.000000
 Range of M.O.s used for correlation:    10   185
 NBasis=   185 NAE=    31 NBE=    31 NFC=     9 NFV=     0
 NROrb=    176 NOA=    22 NOB=    22 NVA=   154 NVB=   154

 **** Warning!!: The largest alpha MO coefficient is  0.18393717D+03

 Orbital symmetries:
       Occupied  (A) (A) (A) (A) (A) (A) (A) (A) (A) (A) (A) (A)
                 (A) (A) (A) (A) (A) (A) (A) (A) (A) (A) (A) (A)
                 (A) (A) (A) (A) (A) (A) (A)
       Virtual   (A) (A) (A) (A) (A) (A) (A) (A) (A) (A) (A) (A)
                 (A) (A) (A) (A) (A) (A) (A) (A) (A) (A) (A) (A)
                 (A) (A) (A) (A) (A) (A) (A) (A) (A) (A) (A) (A)
                 (A) (A) (A) (A) (A) (A) (A) (A) (A) (A) (A) (A)
                 (A) (A) (A) (A) (A) (A) (A) (A) (A) (A) (A) (A)
                 (A) (A) (A) (A) (A) (A) (A) (A) (A) (A) (A) (A)
                 (A) (A) (A) (A) (A) (A) (A) (A) (A) (A) (A) (A)
                 (A) (A) (A) (A) (A) (A) (A) (A) (A) (A) (A) (A)
                 (A) (A) (A) (A) (A) (A) (A) (A) (A) (A) (A) (A)
                 (A) (A) (A) (A) (A) (A) (A) (A) (A) (A) (A) (A)
                 (A) (A) (A) (A) (A) (A) (A) (A) (A) (A) (A) (A)
                 (A) (A) (A) (A) (A) (A) (A) (A) (A) (A) (A) (A)
                 (A) (A) (A) (A) (A) (A) (A) (A) (A) (A)
 Generating guess from densities on rwf.
 Convergence on wavefunction:    0.000001000000000
 Iteration     1 Dimension     6 NMult     0 NNew      6
 CISAX will form     6 AO SS matrices at one time.
 New state      2 was old state      3
 New state      3 was old state      2
 Iteration     2 Dimension    12 NMult     6 NNew      6
 New state      2 was old state      3
 New state      3 was old state      2
 Iteration     3 Dimension    18 NMult    12 NNew      6
 Iteration     4 Dimension    24 NMult    18 NNew      6
 Iteration     5 Dimension    30 NMult    24 NNew      6
 Iteration     6 Dimension    36 NMult    30 NNew      6
 Iteration     7 Dimension    42 NMult    36 NNew      6
 Iteration     8 Dimension    48 NMult    42 NNew      6
 Iteration     9 Dimension    54 NMult    48 NNew      6
 Iteration    10 Dimension    60 NMult    54 NNew      6
 Iteration    11 Dimension    64 NMult    60 NNew      4
 ***********************************************************************
 Excited states from <AA,BB:AA,BB> singles matrix:
 ***********************************************************************
 
 Ground to excited state transition densities written to RWF  633
 Ground to excited state transition electric dipole moments (Au):
       state          X           Y           Z        Dip. S.      Osc.
         1         0.6858      0.6620      0.0001      0.9086      0.0957
         2         0.0000      0.0000     -0.1350      0.0182      0.0021
         3         0.3053     -0.1713      0.0000      0.1226      0.0143
 Ground to excited state transition velocity dipole moments (Au):
       state          X           Y           Z        Dip. S.      Osc.
         1        -0.0985     -0.1137     -0.0000      0.0226      0.0956
         2        -0.0000     -0.0000      0.0135      0.0002      0.0007
         3        -0.0499      0.0318     -0.0000      0.0035      0.0134
 Ground to excited state transition magnetic dipole moments (Au):
       state          X           Y           Z
         1         0.0000      0.0000     -0.1664
         2         0.1379      0.0643      0.0000
         3        -0.0000      0.0000     -0.0477
 Ground to excited state transition velocity quadrupole moments (Au):
       state          XX          YY          ZZ          XY          XZ          YZ
         1         0.1785     -0.1160      0.0128     -0.0702      0.0000     -0.0000
         2         0.0000     -0.0000     -0.0000     -0.0000     -0.0564      0.0536
         3         0.0307     -0.0773      0.0268     -0.0088     -0.0000     -0.0000
 <0|del|b> * <b|rxdel|0> + <0|del|b> * <b|delr+rdel|0>
 Rotatory Strengths (R) in cgs (10**-40 erg-esu-cm/Gauss)
       state          XX          YY          ZZ    R(velocity)    E-M Angle
         1         0.0126      0.0015     -0.0131      0.0003       90.00
         2         0.0003      0.0001     -0.0002      0.0000       90.00
         3         0.0010      0.0012     -0.0004      0.0006       90.00
 1/2[<0|r|b>*<b|rxdel|0> + (<0|rxdel|b>*<b|r|0>)*]
 Rotatory Strengths (R) in cgs (10**-40 erg-esu-cm/Gauss)
       state          XX          YY          ZZ     R(length)
         1        -0.0115     -0.0015      0.0135      0.0002
         2        -0.0011     -0.0001      0.0014      0.0000
         3         0.0002      0.0008      0.0009      0.0007
  1/2[<0|del|b>*<b|r|0> + (<0|r|b>*<b|del|0>)*] (Au)
       state          X           Y           Z        Dip. S.   Osc.(frdel)
         1        -0.0676     -0.0753     -0.0000      0.1429      0.0952
         2        -0.0000     -0.0000     -0.0018      0.0018      0.0012
         3        -0.0152     -0.0054     -0.0000      0.0207      0.0138

 Excitation energies and oscillator strengths:
 
 Excited State   1:      Singlet-A      4.2982 eV  288.46 nm  f=0.0957  <S**2>=0.000
      29 -> 32         0.10939
      30 -> 35         0.10376
      31 -> 32         0.68090
 This state for optimization and/or second-order correction.
 Total Energy, E(TD-HF/TD-DFT) =  -363.676351830    
 Copying the excited state density for this state as the 1-particle RhoCI density.
 
 Excited State   2:      Singlet-A      4.6044 eV  269.27 nm  f=0.0021  <S**2>=0.000
      31 -> 33         0.70434
 
 Excited State   3:      Singlet-A      4.7504 eV  261.00 nm  f=0.0143  <S**2>=0.000
      30 -> 32         0.55446
      31 -> 35        -0.42712
 SavETr:  write IOETrn=   770 NScale= 10 NData=  16 NLR=1 NState=    3 LETran=      64.
          IDoAtm=1111111111111111
          Differentiating once with respect to electric field.
                with respect to dipole field.
          Differentiating once with respect to nuclear coordinates.
          There are     1 degrees of freedom in the 1st order CPHF.  IDoFFX=0 NUNeed=     1.
 LinEq1:  Iter=  0 NonCon=     1 RMS=1.51D-02 Max=4.77D-01 NDo=     1
 AX will form     1 AO Fock derivatives at one time.
 LinEq1:  Iter=  1 NonCon=     1 RMS=5.77D-03 Max=1.18D-01 NDo=     1
 LinEq1:  Iter=  2 NonCon=     1 RMS=5.26D-03 Max=1.92D-01 NDo=     1
 LinEq1:  Iter=  3 NonCon=     1 RMS=2.28D-03 Max=5.16D-02 NDo=     1
 LinEq1:  Iter=  4 NonCon=     1 RMS=1.79D-03 Max=5.62D-02 NDo=     1
 LinEq1:  Iter=  5 NonCon=     1 RMS=8.11D-04 Max=1.60D-02 NDo=     1
 LinEq1:  Iter=  6 NonCon=     1 RMS=5.81D-04 Max=1.88D-02 NDo=     1
 LinEq1:  Iter=  7 NonCon=     1 RMS=2.52D-04 Max=6.35D-03 NDo=     1
 LinEq1:  Iter=  8 NonCon=     1 RMS=1.61D-04 Max=3.03D-03 NDo=     1
 LinEq1:  Iter=  9 NonCon=     1 RMS=7.72D-05 Max=2.18D-03 NDo=     1
 LinEq1:  Iter= 10 NonCon=     1 RMS=4.33D-05 Max=8.82D-04 NDo=     1
 LinEq1:  Iter= 11 NonCon=     1 RMS=2.49D-05 Max=5.94D-04 NDo=     1
 LinEq1:  Iter= 12 NonCon=     1 RMS=1.33D-05 Max=2.84D-04 NDo=     1
 LinEq1:  Iter= 13 NonCon=     1 RMS=4.44D-06 Max=1.07D-04 NDo=     1
 LinEq1:  Iter= 14 NonCon=     1 RMS=2.75D-06 Max=4.29D-05 NDo=     1
 LinEq1:  Iter= 15 NonCon=     1 RMS=5.09D-07 Max=1.14D-05 NDo=     1
 LinEq1:  Iter= 16 NonCon=     1 RMS=1.20D-07 Max=2.53D-06 NDo=     1
 LinEq1:  Iter= 17 NonCon=     1 RMS=8.42D-08 Max=1.56D-06 NDo=     1
 LinEq1:  Iter= 18 NonCon=     1 RMS=2.58D-08 Max=5.83D-07 NDo=     1
 LinEq1:  Iter= 19 NonCon=     1 RMS=4.42D-09 Max=5.02D-08 NDo=     1
 LinEq1:  Iter= 20 NonCon=     1 RMS=9.50D-10 Max=1.18D-08 NDo=     1
 LinEq1:  Iter= 21 NonCon=     1 RMS=1.28D-10 Max=1.19D-09 NDo=     1
 LinEq1:  Iter= 22 NonCon=     0 RMS=2.18D-11 Max=3.73D-10 NDo=     1
 Linear equations converged to 1.000D-10 1.000D-09 after    22 iterations.
 End of Minotr F.D. properties file   721 does not exist.
 End of Minotr F.D. properties file   722 does not exist.
 End of Minotr F.D. properties file   788 does not exist.
 Calling FoFJK, ICntrl=  10005127 FMM=F ISym2X=0 I1Cent= 0 IOpClX= 0 NMat=1 NMatS=1 NMatT=0.
 ***** Axes restored to original set *****
 -------------------------------------------------------------------
 Center     Atomic                   Forces (Hartrees/Bohr)
 Number     Number              X              Y              Z
 -------------------------------------------------------------------
      1        6          -0.005132004   -0.009564771   -0.000000476
      2        6           0.010336886    0.011441637    0.000001092
      3        6          -0.007077386   -0.012051324   -0.000000940
      4        6           0.002496064    0.013759155    0.000001123
      5        6           0.001290087   -0.012054454   -0.000000628
      6        6          -0.003451276    0.009979199    0.000000428
      7        6           0.011989707    0.012973145    0.000000969
      8        6           0.002341004   -0.019467828    0.000000141
      9        1           0.000929381    0.001032114    0.000000001
     10        1          -0.000830234   -0.001306107   -0.000000228
     11        1          -0.000443863    0.000958236    0.000000000
     12        1          -0.000000349   -0.001175241   -0.000000053
     13        1          -0.000675362    0.000544251   -0.000000365
     14        1           0.001044597    0.000733169    0.000000437
     15        1           0.000767058   -0.001162295   -0.000000984
     16        7          -0.013584310    0.005361114   -0.000000517
 -------------------------------------------------------------------
 Cartesian Forces:  Max     0.019467828 RMS     0.006334218

 GradGradGradGradGradGradGradGradGradGradGradGradGradGradGradGradGradGrad
 Berny optimization.
 Using GEDIIS/GDIIS optimizer.
 FormGI is forming the generalized inverse of G from B-inverse, IUseBI=4.
 Internal  Forces:  Max     0.011782145 RMS     0.002635473
 Search for a local minimum.
 Step number   2 out of a maximum of   94
 All quantities printed in internal units (Hartrees-Bohrs-Radians)
 Mixed Optimization -- RFO/linear search
 Update second derivatives using D2CorX and points    1    2
 DE= -1.09D-02 DEPred=-1.03D-02 R= 1.06D+00
 TightC=F SS=  1.41D+00  RLast= 2.14D-01 DXNew= 5.0454D-01 6.4198D-01
 Trust test= 1.06D+00 RLast= 2.14D-01 DXMaxT set to 5.05D-01
 ITU=  1  0
 Use linear search instead of GDIIS.
     Eigenvalues ---    0.01849   0.01929   0.01981   0.02009   0.02065
     Eigenvalues ---    0.02110   0.02143   0.02147   0.02169   0.02207
     Eigenvalues ---    0.02231   0.02245   0.02337   0.15969   0.16000
     Eigenvalues ---    0.16000   0.16000   0.16000   0.16000   0.16026
     Eigenvalues ---    0.20745   0.22005   0.23876   0.24384   0.24679
     Eigenvalues ---    0.35666   0.35735   0.35808   0.35867   0.36119
     Eigenvalues ---    0.36472   0.36547   0.38588   0.40646   0.42785
     Eigenvalues ---    0.44040   0.46068   0.46928   0.47188   0.47621
     Eigenvalues ---    0.49066   0.53019
 RFO step:  Lambda=-1.71796091D-03 EMin= 1.84929937D-02
 Quartic linear search produced a step of  0.14637.
 Iteration  1 RMS(Cart)=  0.00933082 RMS(Int)=  0.00006415
 Iteration  2 RMS(Cart)=  0.00011391 RMS(Int)=  0.00001743
 Iteration  3 RMS(Cart)=  0.00000000 RMS(Int)=  0.00001743
 Variable       Old X    -DE/DX   Delta X   Delta X   Delta X     New X
                                 (Linear)    (Quad)   (Total)
    R1        2.66445  -0.00342  -0.00233  -0.00868  -0.01099   2.65345
    R2        2.69909  -0.00047   0.00750  -0.00415   0.00335   2.70245
    R3        2.71899  -0.00573   0.00142  -0.01613  -0.01474   2.70424
    R4        2.65783  -0.00114   0.00353  -0.00414  -0.00058   2.65724
    R5        2.64582   0.00555   0.00640   0.00955   0.01597   2.66180
    R6        2.72192   0.00470   0.01547   0.00505   0.02052   2.74244
    R7        2.05403  -0.00106   0.00132  -0.00390  -0.00258   2.05145
    R8        2.63604  -0.00607  -0.00291  -0.01435  -0.01728   2.61876
    R9        2.05285  -0.00006   0.00133  -0.00071   0.00063   2.05348
   R10        2.69188   0.00337   0.01149   0.00337   0.01484   2.70672
   R11        2.05329   0.00005   0.00137  -0.00037   0.00101   2.05429
   R12        2.05412  -0.00117   0.00134  -0.00428  -0.00293   2.05119
   R13        2.66798   0.01178   0.01301   0.02142   0.03442   2.70241
   R14        2.04464   0.00074   0.00153   0.00173   0.00325   2.04790
   R15        2.04242  -0.00112   0.00121  -0.00398  -0.00278   2.03964
   R16        2.58200  -0.01095  -0.00356  -0.02406  -0.02758   2.55442
   R17        1.91203   0.00088   0.00246   0.00116   0.00361   1.91564
    A1        2.08887   0.00196   0.00231   0.00815   0.01050   2.09937
    A2        1.84985   0.00204  -0.00222   0.01051   0.00824   1.85809
    A3        2.34447  -0.00400  -0.00009  -0.01866  -0.01875   2.32572
    A4        2.14941   0.00350   0.00224   0.01642   0.01870   2.16811
    A5        1.86863   0.00056  -0.00030   0.00073   0.00042   1.86905
    A6        2.26514  -0.00406  -0.00194  -0.01715  -0.01912   2.24602
    A7        2.03369  -0.00551  -0.00256  -0.02683  -0.02938   2.00431
    A8        2.12328   0.00368   0.00046   0.02027   0.02072   2.14401
    A9        2.12621   0.00183   0.00210   0.00656   0.00865   2.13487
   A10        2.11594   0.00250   0.00011   0.01339   0.01346   2.12940
   A11        2.08725  -0.00284   0.00049  -0.01815  -0.01764   2.06961
   A12        2.08000   0.00034  -0.00060   0.00476   0.00418   2.08418
   A13        2.12134   0.00184   0.00104   0.00949   0.01048   2.13182
   A14        2.07523   0.00016  -0.00074   0.00302   0.00231   2.07753
   A15        2.08662  -0.00200  -0.00030  -0.01251  -0.01278   2.07383
   A16        2.05713  -0.00429  -0.00313  -0.02062  -0.02377   2.03336
   A17        2.10940   0.00217   0.00108   0.01070   0.01179   2.12119
   A18        2.11665   0.00212   0.00205   0.00992   0.01199   2.12864
   A19        1.90578  -0.00316   0.00527  -0.01554  -0.01031   1.89547
   A20        2.20231   0.00204  -0.00236   0.01093   0.00858   2.21089
   A21        2.17509   0.00112  -0.00290   0.00462   0.00173   2.17682
   A22        2.30303  -0.00135   0.00499  -0.01090  -0.00592   2.29711
   A23        1.84847   0.00146  -0.00931   0.01273   0.00345   1.85192
   A24        2.13168  -0.00011   0.00433  -0.00184   0.00247   2.13416
   A25        1.95204  -0.00090   0.00657  -0.00843  -0.00180   1.95024
   A26        2.17172  -0.00059  -0.00278  -0.00332  -0.00612   2.16560
   A27        2.15942   0.00149  -0.00379   0.01175   0.00793   2.16735
    D1       -0.00000  -0.00000  -0.00000  -0.00000  -0.00000  -0.00000
    D2       -3.14158  -0.00000  -0.00000  -0.00000  -0.00000  -3.14159
    D3        3.14159  -0.00000  -0.00000  -0.00001  -0.00001   3.14158
    D4        0.00001  -0.00000  -0.00000  -0.00001  -0.00001  -0.00000
    D5       -0.00001   0.00000  -0.00000   0.00000   0.00000  -0.00001
    D6       -3.14159  -0.00000  -0.00000  -0.00000  -0.00000   3.14159
    D7        3.14158   0.00000   0.00000   0.00001   0.00001  -3.14159
    D8        0.00000   0.00000   0.00000   0.00001   0.00001   0.00001
    D9       -0.00001   0.00000   0.00001   0.00002   0.00003   0.00002
   D10        3.14158   0.00000   0.00000   0.00001   0.00001   3.14159
   D11        3.14158   0.00000   0.00001   0.00002   0.00002  -3.14158
   D12       -0.00001   0.00000  -0.00000   0.00000   0.00000  -0.00001
   D13        0.00001  -0.00000   0.00000  -0.00000   0.00000   0.00001
   D14        3.14159   0.00000   0.00000   0.00000   0.00000  -3.14159
   D15        3.14159   0.00000   0.00000   0.00000   0.00000  -3.14159
   D16       -0.00002   0.00000  -0.00000   0.00001   0.00001  -0.00001
   D17       -0.00000  -0.00000  -0.00001  -0.00001  -0.00001  -0.00001
   D18       -3.14154  -0.00000  -0.00000  -0.00002  -0.00002  -3.14156
   D19       -3.14158  -0.00000  -0.00000  -0.00001  -0.00002   3.14159
   D20        0.00006  -0.00000  -0.00000  -0.00002  -0.00002   0.00004
   D21       -0.00001   0.00000  -0.00000   0.00000   0.00000  -0.00001
   D22        3.14158   0.00000  -0.00000   0.00000   0.00000   3.14158
   D23       -3.14159  -0.00000   0.00000  -0.00000  -0.00000   3.14159
   D24        0.00000  -0.00000   0.00000  -0.00000   0.00000   0.00000
   D25        0.00000   0.00000  -0.00000  -0.00000  -0.00000   0.00000
   D26       -3.14159   0.00000   0.00000   0.00000   0.00000  -3.14159
   D27       -3.14159  -0.00000  -0.00000  -0.00000  -0.00000   3.14159
   D28        0.00000  -0.00000   0.00000  -0.00000  -0.00000   0.00000
   D29        0.00001  -0.00000   0.00000  -0.00000  -0.00000   0.00001
   D30       -3.14159   0.00000   0.00000   0.00000   0.00000  -3.14159
   D31       -3.14158  -0.00000   0.00000  -0.00000  -0.00000  -3.14159
   D32       -0.00000   0.00000   0.00000   0.00000   0.00000   0.00000
   D33        3.14159  -0.00000  -0.00001  -0.00001  -0.00001   3.14158
   D34        0.00001  -0.00000  -0.00001  -0.00003  -0.00004  -0.00003
   D35       -0.00000   0.00000   0.00000   0.00000   0.00001   0.00001
   D36       -3.14158  -0.00000  -0.00000  -0.00002  -0.00002   3.14159
   D37       -0.00001   0.00000   0.00001   0.00002   0.00003   0.00003
   D38        3.14153   0.00000   0.00001   0.00003   0.00004   3.14157
   D39       -3.14159   0.00000   0.00001   0.00000   0.00001  -3.14158
   D40       -0.00005   0.00000   0.00000   0.00001   0.00002  -0.00003
         Item               Value     Threshold  Converged?
 Maximum Force            0.011782     0.000450     NO 
 RMS     Force            0.002635     0.000300     NO 
 Maximum Displacement     0.029026     0.001800     NO 
 RMS     Displacement     0.009389     0.001200     NO 
 Predicted change in Energy=-1.020099D-03
 GradGradGradGradGradGradGradGradGradGradGradGradGradGradGradGradGradGrad

                          Input orientation:                          
 ---------------------------------------------------------------------
 Center     Atomic      Atomic             Coordinates (Angstroms)
 Number     Number       Type             X           Y           Z
 ---------------------------------------------------------------------
      1          6           0       -0.242005    0.752915    0.000014
      2          6           0       -0.245326   -0.651227   -0.000064
      3          6           0        0.915476   -1.444829    0.000013
      4          6           0        2.162002   -0.701682    0.000203
      5          6           0        2.191105    0.683801    0.000284
      6          6           0        0.994605    1.471182    0.000189
      7          6           0       -1.613414    1.161655   -0.000126
      8          6           0       -2.437723   -0.006918   -0.000261
      9          1           0        0.886745   -2.530030   -0.000051
     10          1           0        3.097158   -1.255128    0.000281
     11          1           0        3.152451    1.191314    0.000423
     12          1           0        1.020852    2.556307    0.000249
     13          1           0       -1.985449    2.179493   -0.000112
     14          1           0       -3.510297   -0.127517   -0.000374
     15          1           0       -1.891200   -2.030714   -0.000301
     16          7           0       -1.592677   -1.061950   -0.000240
 ---------------------------------------------------------------------
                    Distance matrix (angstroms):
                    1          2          3          4          5
     1  C    0.000000
     2  C    1.404146   0.000000
     3  C    2.483916   1.406153   0.000000
     4  C    2.809822   2.407857   1.451239   0.000000
     5  C    2.434091   2.778218   2.481591   1.385789   0.000000
     6  C    1.430074   2.458058   2.917084   2.466608   1.432334
     7  C    1.431024   2.271168   3.631672   4.210200   3.834411
     8  C    2.323472   2.285112   3.648497   4.651899   4.680079
     9  H    3.471571   2.193510   1.085582   2.229156   3.468438
    10  H    3.896440   3.396601   2.189914   1.086655   2.140182
    11  H    3.422649   3.865210   3.457355   2.136451   1.087086
    12  H    2.201597   3.448403   4.002523   3.452060   2.208115
    13  H    2.252715   3.322801   4.642314   5.050002   4.436293
    14  H    3.384803   3.306706   4.617659   5.701284   5.758838
    15  H    3.235496   2.147530   2.867175   4.265533   4.902428
    16  N    2.262311   1.408562   2.537209   3.771923   4.167092
                    6          7          8          9         10
     6  C    0.000000
     7  C    2.626322   0.000000
     8  C    3.737064   1.430051   0.000000
     9  H    4.002665   4.458624   4.173509   0.000000
    10  H    3.442891   5.294368   5.673882   2.551725   0.000000
    11  H    2.175920   4.765957   5.717150   4.356813   2.447067
    12  H    1.085442   2.980673   4.304865   5.088105   4.340287
    13  H    3.063074   1.083700   2.232699   5.516258   6.134290
    14  H    4.780165   2.293497   1.079333   5.010593   6.702982
    15  H    4.537747   3.204432   2.096292   2.822462   5.048292
    16  N    3.620882   2.223702   1.351738   2.881456   4.693812
                   11         12         13         14         15
    11  H    0.000000
    12  H    2.531190   0.000000
    13  H    5.232066   3.029824   0.000000
    14  H    6.792019   5.266329   2.765404   0.000000
    15  H    5.984971   5.433305   4.211262   2.498726   0.000000
    16  N    5.252946   4.463443   3.265153   2.133174   1.013715
                   16
    16  N    0.000000
 Stoichiometry    C8H7N
 Framework group  C1[X(C8H7N)]
 Deg. of freedom    42
 Full point group                 C1      NOp   1
 Largest Abelian subgroup         C1      NOp   1
 Largest concise Abelian subgroup C1      NOp   1
                         Standard orientation:                         
 ---------------------------------------------------------------------
 Center     Atomic      Atomic             Coordinates (Angstroms)
 Number     Number       Type             X           Y           Z
 ---------------------------------------------------------------------
      1          6           0       -0.230418    0.754147    0.000015
      2          6           0       -0.254453   -0.649793   -0.000063
      3          6           0        0.894515   -1.460433    0.000014
      4          6           0        2.151868   -0.735756    0.000204
      5          6           0        2.201407    0.649147    0.000285
      6          6           0        1.016653    1.454093    0.000189
      7          6           0       -1.595648    1.183074   -0.000125
      8          6           0       -2.437106    0.026789   -0.000260
      9          1           0        0.849778   -2.545092   -0.000050
     10          1           0        3.078758   -1.302938    0.000282
     11          1           0        3.170136    1.142422    0.000424
     12          1           0        1.058905    2.538713    0.000250
     13          1           0       -1.952627    2.206290   -0.000111
     14          1           0       -3.511343   -0.077975   -0.000374
     15          1           0       -1.920499   -2.004850   -0.000300
     16          7           0       -1.607717   -1.040595   -0.000239
[...]
 ! D8    D(7,1,6,12)             0.0            -DE/DX =    0.0                 !
 ! D9    D(2,1,7,8)             -0.0017         -DE/DX =    0.0                 !
 ! D10   D(2,1,7,13)           180.0003         -DE/DX =    0.0                 !
 ! D11   D(6,1,7,8)           -180.0015         -DE/DX =    0.0                 !
 ! D12   D(6,1,7,13)             0.0005         -DE/DX =    0.0                 !
 ! D13   D(1,2,3,4)             -0.0003         -DE/DX =    0.0                 !
 ! D14   D(1,2,3,9)           -180.0001         -DE/DX =    0.0                 !
 ! D15   D(16,2,3,4)           179.9998         -DE/DX =    0.0                 !
 ! D16   D(16,2,3,9)             0.0            -DE/DX =    0.0                 !
 ! D17   D(1,2,16,8)             0.0013         -DE/DX =    0.0                 !
 ! D18   D(1,2,16,15)          180.0006         -DE/DX =    0.0                 !
 ! D19   D(3,2,16,8)           180.0012         -DE/DX =    0.0                 !
 ! D20   D(3,2,16,15)            0.0005         -DE/DX =    0.0                 !
 ! D21   D(2,3,4,5)              0.0001         -DE/DX =    0.0                 !
 ! D22   D(2,3,4,10)           180.0001         -DE/DX =    0.0                 !
 ! D23   D(9,3,4,5)            179.9999         -DE/DX =    0.0                 !
 ! D24   D(9,3,4,10)            -0.0001         -DE/DX =    0.0                 !
 ! D25   D(3,4,5,6)              0.0001         -DE/DX =    0.0                 !
 ! D26   D(3,4,5,11)          -180.0002         -DE/DX =    0.0                 !
 ! D27   D(10,4,5,6)           180.0002         -DE/DX =    0.0                 !
 ! D28   D(10,4,5,11)           -0.0001         -DE/DX =    0.0                 !
 ! D29   D(4,5,6,1)             -0.0002         -DE/DX =    0.0                 !
 ! D30   D(4,5,6,12)          -180.0004         -DE/DX =    0.0                 !
 ! D31   D(11,5,6,1)          -179.9999         -DE/DX =    0.0                 !
 ! D32   D(11,5,6,12)           -0.0001         -DE/DX =    0.0                 !
 ! D33   D(1,7,8,14)           180.001          -DE/DX =    0.0                 !
 ! D34   D(1,7,8,16)             0.0025         -DE/DX =    0.0                 !
 ! D35   D(13,7,8,14)           -0.0009         -DE/DX =    0.0                 !
 ! D36   D(13,7,8,16)          180.0006         -DE/DX =    0.0                 !
 ! D37   D(7,8,16,2)            -0.0023         -DE/DX =    0.0                 !
 ! D38   D(7,8,16,15)         -180.0016         -DE/DX =    0.0                 !
 ! D39   D(14,8,16,2)         -180.001          -DE/DX =    0.0                 !
 ! D40   D(14,8,16,15)          -0.0003         -DE/DX =    0.0                 !
 --------------------------------------------------------------------------------
 GradGradGradGradGradGradGradGradGradGradGradGradGradGradGradGradGradGrad

                          Input orientation:                          
 ---------------------------------------------------------------------
 Center     Atomic      Atomic             Coordinates (Angstroms)
 Number     Number       Type             X           Y           Z
 ---------------------------------------------------------------------
      1          6           0       -0.238525    0.747545    0.000020
      2          6           0       -0.241263   -0.652126   -0.000056
      3          6           0        0.918479   -1.451336    0.000028
      4          6           0        2.155504   -0.700497    0.000197
      5          6           0        2.187068    0.686085    0.000272
      6          6           0        0.992552    1.473476    0.000189
      7          6           0       -1.608731    1.162283   -0.000097
      8          6           0       -2.433350   -0.009122   -0.000285
      9          1           0        0.897537   -2.534807   -0.000031
     10          1           0        3.091893   -1.252930    0.000268
     11          1           0        3.149612    1.191153    0.000402
     12          1           0        1.015336    2.557371    0.000253
     13          1           0       -1.984599    2.177339   -0.000085
     14          1           0       -3.508122   -0.114605   -0.000426
     15          1           0       -1.893106   -2.030855   -0.000299
     16          7           0       -1.597984   -1.062302   -0.000224
 ---------------------------------------------------------------------
                    Distance matrix (angstroms):
                    1          2          3          4          5
     1  C    0.000000
     2  C    1.399673   0.000000
     3  C    2.484700   1.408452   0.000000
     4  C    2.797891   2.397255   1.447063   0.000000
     5  C    2.426371   2.772652   2.485536   1.386941   0.000000
     6  C    1.429169   2.457739   2.925750   2.465485   1.430683
     7  C    1.431599   2.272015   3.635629   4.199930   3.825553
     8  C    2.321595   2.284448   3.648937   4.640644   4.672427
     9  H    3.473394   2.200307   1.083673   2.224224   3.469443
    10  H    3.885046   3.386871   2.182451   1.087202   2.139740
    11  H    3.417054   3.859496   3.458425   2.136958   1.087008
    12  H    2.201735   3.446725   4.009877   3.451621   2.207865
    13  H    2.256787   3.323416   4.647058   5.042062   4.430196
    14  H    3.381356   3.310785   4.624029   5.693850   5.751199
    15  H    3.233751   2.151622   2.870688   4.261584   4.901998
    16  N    2.263554   1.417369   2.546357   3.770885   4.169349
                    6          7          8          9         10
     6  C    0.000000
     7  C    2.619831   0.000000
     8  C    3.732948   1.432546   0.000000
     9  H    4.009408   4.466526   4.180178   0.000000
    10  H    3.441006   5.284801   5.663512   2.541340   0.000000
    11  H    2.175458   4.758431   5.710528   4.353690   2.444765
    12  H    1.084135   2.971868   4.298875   5.093540   4.339411
    13  H    3.059223   1.082412   2.232037   5.523678   6.126787
    14  H    4.772637   2.288696   1.079936   5.026650   6.697461
    15  H    4.539532   3.205776   2.092670   2.835781   5.045333
    16  N    3.625058   2.224611   1.344257   2.897566   4.693749
                   11         12         13         14         15
    11  H    0.000000
    12  H    2.534104   0.000000
    13  H    5.228067   3.023910   0.000000
    14  H    6.784573   5.253678   2.752114   0.000000
    15  H    5.984174   5.432389   4.209189   2.506051   0.000000
    16  N    5.255257   4.464468   3.262629   2.132313   1.012517
                   16
    16  N    0.000000
 Stoichiometry    C8H7N
 Framework group  C1[X(C8H7N)]
 Deg. of freedom    42
 Full point group                 C1      NOp   1
 Largest Abelian subgroup         C1      NOp   1
 Largest concise Abelian subgroup C1      NOp   1
                         Standard orientation:                         
 ---------------------------------------------------------------------
 Center     Atomic      Atomic             Coordinates (Angstroms)
 Number     Number       Type             X           Y           Z
 ---------------------------------------------------------------------
      1          6           0       -0.226769    0.749541    0.000018
      2          6           0       -0.250697   -0.649928   -0.000058
      3          6           0        0.896813   -1.466604    0.000026
      4          6           0        2.145063   -0.734578    0.000195
      5          6           0        2.197615    0.651367    0.000270
      6          6           0        1.015156    1.456751    0.000186
      7          6           0       -1.590540    1.184976   -0.000099
      8          6           0       -2.432798    0.026189   -0.000287
      9          1           0        0.859470   -2.549633   -0.000033
     10          1           0        3.072982   -1.301124    0.000266
     11          1           0        3.167696    1.141805    0.000400
     12          1           0        1.054348    2.540178    0.000251
     13          1           0       -1.950997    2.205606   -0.000087
     14          1           0       -3.509044   -0.063010   -0.000428
     15          1           0       -1.923223   -2.003491   -0.000301
     16          7           0       -1.613472   -1.039517   -0.000226
 ---------------------------------------------------------------------
 Rotational constants (GHZ):           3.8382130           1.6000292           1.1292717

 **********************************************************************

            Population analysis using the CI Density.

 **********************************************************************

 Orbital symmetries:
       Occupied  (A) (A) (A) (A) (A) (A) (A) (A) (A) (A) (A) (A)
                 (A) (A) (A) (A) (A) (A) (A) (A) (A) (A) (A) (A)
                 (A) (A) (A) (A) (A) (A) (A)
       Virtual   (A) (A) (A) (A) (A) (A) (A) (A) (A) (A) (A) (A)
                 (A) (A) (A) (A) (A) (A) (A) (A) (A) (A) (A) (A)
                 (A) (A) (A) (A) (A) (A) (A) (A) (A) (A) (A) (A)
                 (A) (A) (A) (A) (A) (A) (A) (A) (A) (A) (A) (A)
                 (A) (A) (A) (A) (A) (A) (A) (A) (A) (A) (A) (A)
                 (A) (A) (A) (A) (A) (A) (A) (A) (A) (A) (A) (A)
                 (A) (A) (A) (A) (A) (A) (A) (A) (A) (A) (A) (A)
                 (A) (A) (A) (A) (A) (A) (A) (A) (A) (A) (A) (A)
                 (A) (A) (A) (A) (A) (A) (A) (A) (A) (A) (A) (A)
                 (A) (A) (A) (A) (A) (A) (A) (A) (A) (A) (A) (A)
                 (A) (A) (A) (A) (A) (A) (A) (A) (A) (A) (A) (A)
                 (A) (A) (A) (A) (A) (A) (A) (A) (A) (A) (A) (A)
                 (A) (A) (A) (A) (A) (A) (A) (A) (A) (A)
 The electronic state is 1-A.
 Alpha  occ. eigenvalues --  -14.38952 -10.23150 -10.22739 -10.20382 -10.19679
 Alpha  occ. eigenvalues --  -10.19356 -10.19207 -10.18974 -10.18162  -0.98545
 Alpha  occ. eigenvalues --   -0.83914  -0.77698  -0.74246  -0.71081  -0.63134
 Alpha  occ. eigenvalues --   -0.59839  -0.57971  -0.54430  -0.48718  -0.47652
 Alpha  occ. eigenvalues --   -0.44137  -0.43665  -0.42299  -0.40702  -0.39610
 Alpha  occ. eigenvalues --   -0.35577  -0.34890  -0.33636  -0.27473  -0.23621
 Alpha  occ. eigenvalues --   -0.19874
 Alpha virt. eigenvalues --   -0.03061  -0.00495   0.01469   0.01614   0.02155
 Alpha virt. eigenvalues --    0.03545   0.03723   0.03931   0.05700   0.05993
 Alpha virt. eigenvalues --    0.06418   0.06493   0.08407   0.08641   0.10437
 Alpha virt. eigenvalues --    0.10614   0.10896   0.12541   0.13248   0.13537
 Alpha virt. eigenvalues --    0.15105   0.15464   0.16314   0.16343   0.17305
 Alpha virt. eigenvalues --    0.17693   0.18492   0.18524   0.19526   0.19541
 Alpha virt. eigenvalues --    0.19931   0.20109   0.21527   0.21877   0.22931
 Alpha virt. eigenvalues --    0.23180   0.23365   0.24208   0.25002   0.25884
 Alpha virt. eigenvalues --    0.26756   0.27192   0.27750   0.28751   0.29746
 Alpha virt. eigenvalues --    0.30067   0.31502   0.33057   0.34699   0.35019
 Alpha virt. eigenvalues --    0.36373   0.38932   0.41731   0.44627   0.50117
 Alpha virt. eigenvalues --    0.57153   0.59670   0.66821   0.67042   0.69443
 Alpha virt. eigenvalues --    0.71313   0.71981   0.72245   0.72866   0.72997
 Alpha virt. eigenvalues --    0.75056   0.75107   0.76964   0.77993   0.78620
 Alpha virt. eigenvalues --    0.80473   0.84639   0.88106   0.88688   0.89548
 Alpha virt. eigenvalues --    0.93190   0.94064   0.94746   0.95453   0.97563
 Alpha virt. eigenvalues --    0.99194   1.02387   1.04110   1.05356   1.08671
 Alpha virt. eigenvalues --    1.11071   1.12259   1.16655   1.17114   1.20524
 Alpha virt. eigenvalues --    1.21915   1.24131   1.24258   1.31031   1.32295
 Alpha virt. eigenvalues --    1.34926   1.35376   1.39394   1.40655   1.42878
 Alpha virt. eigenvalues --    1.47092   1.47624   1.48979   1.50079   1.53595
 Alpha virt. eigenvalues --    1.57343   1.62329   1.78638   1.81444   1.86474
 Alpha virt. eigenvalues --    1.89346   1.89520   1.92456   1.98337   1.98914
 Alpha virt. eigenvalues --    2.00228   2.02587   2.05807   2.11415   2.15237
 Alpha virt. eigenvalues --    2.16194   2.19095   2.21405   2.23842   2.26666
 Alpha virt. eigenvalues --    2.27260   2.29836   2.36077   2.38963   2.44966
 Alpha virt. eigenvalues --    2.51060   2.54069   2.60746   2.63547   2.64888
 Alpha virt. eigenvalues --    2.66012   2.72518   2.78466   2.81964   2.83398
 Alpha virt. eigenvalues --    2.93334   2.97122   3.06355   3.21570   3.38675
 Alpha virt. eigenvalues --    4.13987   4.23152   4.27276   4.30658   4.34505
 Alpha virt. eigenvalues --    4.39051   4.46488   4.50957   4.76276
          Condensed to atoms (all electrons):
               1          2          3          4          5          6
     1  C   16.745056  -4.384177  -4.624831  -0.394514  -0.239392   0.290667
     2  C   -4.384177  14.154795  -1.950710   0.235016  -0.319578  -1.977545
     3  C   -4.624831  -1.950710  14.024084  -0.325692   0.229084  -2.744309
     4  C   -0.394514   0.235016  -0.325692   5.714931   0.523580   0.539771
     5  C   -0.239392  -0.319578   0.229084   0.523580   5.485662  -0.080515
     6  C    0.290667  -1.977545  -2.744309   0.539771  -0.080515  13.016791
     7  C   -5.864050   2.208456   3.322415  -0.321960   0.187977  -3.559039
     8  C    1.958566  -0.711176  -1.120821   0.036497  -0.078693   0.918338
     9  H    0.026834  -0.023216   0.287080   0.002205   0.025283  -0.022105
    10  H   -0.002721   0.023903  -0.039626   0.294276  -0.006756   0.026240
    11  H    0.035303  -0.020068   0.027317  -0.008082   0.299245  -0.040846
    12  H    0.038725   0.035196  -0.043668   0.026251  -0.011539   0.306283
    13  H   -0.078646   0.048433   0.007442   0.000809   0.001197  -0.001794
    14  H   -0.077138   0.088332   0.025458   0.000039   0.000840  -0.018841
    15  H    0.194839  -0.086893  -0.134899  -0.004955  -0.003918   0.024656
    16  N    0.853540  -0.403122  -0.435832   0.006035  -0.017641   0.098511
               7          8          9         10         11         12
     1  C   -5.864050   1.958566   0.026834  -0.002721   0.035303   0.038725
     2  C    2.208456  -0.711176  -0.023216   0.023903  -0.020068   0.035196
     3  C    3.322415  -1.120821   0.287080  -0.039626   0.027317  -0.043668
     4  C   -0.321960   0.036497   0.002205   0.294276  -0.008082   0.026251
     5  C    0.187977  -0.078693   0.025283  -0.006756   0.299245  -0.011539
     6  C   -3.559039   0.918338  -0.022105   0.026240  -0.040846   0.306283
     7  C   12.443920  -2.147065  -0.008936  -0.002040   0.002755  -0.067149
     8  C   -2.147065   6.545951   0.007811   0.001601  -0.000066   0.004252
     9  H   -0.008936   0.007811   0.541179  -0.003747  -0.000135   0.000014
    10  H   -0.002040   0.001601  -0.003747   0.546221  -0.005533  -0.000145
    11  H    0.002755  -0.000066  -0.000135  -0.005533   0.546986  -0.003684
    12  H   -0.067149   0.004252   0.000014  -0.000145  -0.003684   0.539415
    13  H    0.368927  -0.061196   0.000002  -0.000000  -0.000002   0.001552
    14  H   -0.005643   0.350564   0.000002  -0.000000  -0.000000  -0.000001
    15  H   -0.001623  -0.027708   0.002214  -0.000002  -0.000000   0.000004
    16  N   -0.638481   0.560386  -0.006535  -0.000435   0.000240  -0.000799
              13         14         15         16
     1  C   -0.078646  -0.077138   0.194839   0.853540
     2  C    0.048433   0.088332  -0.086893  -0.403122
     3  C    0.007442   0.025458  -0.134899  -0.435832
     4  C    0.000809   0.000039  -0.004955   0.006035
     5  C    0.001197   0.000840  -0.003918  -0.017641
     6  C   -0.001794  -0.018841   0.024656   0.098511
     7  C    0.368927  -0.005643  -0.001623  -0.638481
     8  C   -0.061196   0.350564  -0.027708   0.560386
     9  H    0.000002   0.000002   0.002214  -0.006535
    10  H   -0.000000  -0.000000  -0.000002  -0.000435
    11  H   -0.000002  -0.000000  -0.000000   0.000240
    12  H    0.001552  -0.000001   0.000004  -0.000799
    13  H    0.490637  -0.000624  -0.000086   0.007337
    14  H   -0.000624   0.474965  -0.002595  -0.053014
    15  H   -0.000086  -0.002595   0.345433   0.262319
    16  N    0.007337  -0.053014   0.262319   7.167836
 Mulliken charges:
               1
     1  C    1.521940
     2  C   -0.917646
     3  C   -0.502492
     4  C   -0.324208
     5  C    0.005165
     6  C   -0.776263
     7  C    0.081534
     8  C   -0.237240
     9  H    0.172052
    10  H    0.168762
    11  H    0.166570
    12  H    0.175293
    13  H    0.216011
    14  H    0.217655
    15  H    0.433214
    16  N   -0.400346
 Sum of Mulliken charges =  -0.00000
 Mulliken charges with hydrogens summed into heavy atoms:
               1
     1  C    1.521940
     2  C   -0.917646
     3  C   -0.330441
     4  C   -0.155446
     5  C    0.171735
     6  C   -0.600970
     7  C    0.297545
     8  C   -0.019585
    16  N    0.032869
 Electronic spatial extent (au):  <R**2>=           1029.6268
 Charge=             -0.0000 electrons
 Dipole moment (field-independent basis, Debye):
    X=             -4.8430    Y=             -1.1348    Z=             -0.0006  Tot=              4.9742
 Quadrupole moment (field-independent basis, Debye-Ang):
   XX=            -44.5823   YY=            -47.4505   ZZ=            -60.8698
   XY=              2.1423   XZ=              0.0019   YZ=              0.0009
 Traceless Quadrupole moment (field-independent basis, Debye-Ang):
   XX=              6.3852   YY=              3.5171   ZZ=             -9.9023
   XY=              2.1423   XZ=              0.0019   YZ=              0.0009
 Octapole moment (field-independent basis, Debye-Ang**2):
  XXX=            -31.4226  YYY=             -8.3789  ZZZ=             -0.0018  XYY=            -17.1528
  XXY=             -6.7621  XXZ=             -0.0026  XZZ=             -6.0390  YZZ=             -1.0954
  YYZ=             -0.0018  XYZ=             -0.0011
 Hexadecapole moment (field-independent basis, Debye-Ang**3):
 XXXX=           -855.7625 YYYY=           -412.8423 ZZZZ=            -89.3372 XXXY=             17.0338
 XXXZ=             -0.0258 YYYX=             15.2892 YYYZ=             -0.0032 ZZZX=             -0.0575
 ZZZY=             -0.0118 XXYY=           -202.5937 XXZZ=           -203.1677 YYZZ=           -108.3427
 XXYZ=              0.0013 YYXZ=             -0.0102 ZZXY=              1.7569
 N-N= 3.968237284512D+02 E-N=-1.635667334614D+03  KE= 3.601159387065D+02
 1\1\GINC-COMET-02-14\FOpt\RB3LYP TD-FC\6-31+G(d)\C8H7N1\WENQINHE\13-Ju
 n-2018\0\\# opt td=(root=1) b3lyp/6-31+g(d) geom=connectivity density=
 current empiricaldispersion=gd3\\Title Card Required\\0,1\C,-0.2385245
 487,0.7475446542,0.0000203415\C,-0.2412630172,-0.6521260428,-0.0000555
 878\C,0.9184787864,-1.4513362561,0.0000284743\C,2.1555037916,-0.700496
 8247,0.0001970794\C,2.1870677064,0.6860848976,0.0002716312\C,0.9925515
 122,1.4734755418,0.0001885976\C,-1.6087312611,1.1622832908,-0.00009708
 \C,-2.4333501765,-0.009121943,-0.0002846238\H,0.897536611,-2.534806687
 4,-0.0000307043\H,3.091892986,-1.2529303128,0.0002680675\H,3.149612060
 5,1.1911531669,0.0004017637\H,1.0153362567,2.5573709985,0.0002528429\H
 ,-1.9845987527,2.1773393074,-0.0000846993\H,-3.5081221214,-0.114604598
 8,-0.0004257823\H,-1.8931060188,-2.030854961,-0.0002986614\N,-1.597983
 8144,-1.0623022305,-0.0002236591\\Version=ES64L-G16RevB.01\State=1-A\H
 F=-363.830032\RMSD=4.897e-09\RMSF=4.970e-05\Dipole=-1.9053758,-0.44648
 13,-0.0002174\Quadrupole=4.7472761,2.6148469,-7.362123,1.5927451,0.001
 4047,0.0006664\PG=C01 [X(C8H7N1)]\\@


 EVERY WORD THAT YOU WRITE IS A BLOW THAT SMITES THE DEVIL.
     -- ST. BERNARD OF CLAIRVAUX
 Job cpu time:       0 days  1 hours 37 minutes 18.7 seconds.
 Elapsed time:       0 days  0 hours 24 minutes 20.5 seconds.
 File lengths (MBytes):  RWF=    209 Int=      0 D2E=      0 Chk=      8 Scr=      1
 Normal termination of Gaussian 16 at Wed Jun 13 08:17:25 2018.
