 Entering Gaussian System, Link 0=/opt/gaussian/16.B.01/g16/g16
 Initial command:
 /opt/gaussian/16.B.01/g16/l1.exe "/scratch/wenqinhe/17151548/Gau-10654.inp" -scrdir="/scratch/wenqinhe/17151548/"
 Entering Link 1 = /opt/gaussian/16.B.01/g16/l1.exe PID=     10655.
  
 Copyright (c) 1988-2017, Gaussian, Inc.  All Rights Reserved.
  
 This is part of the Gaussian(R) 16 program.  It is based on
 the Gaussian(R) 09 system (copyright 2009, Gaussian, Inc.),
 the Gaussian(R) 03 system (copyright 2003, Gaussian, Inc.),
 the Gaussian(R) 98 system (copyright 1998, Gaussian, Inc.),
 the Gaussian(R) 94 system (copyright 1995, Gaussian, Inc.),
 the Gaussian 92(TM) system (copyright 1992, Gaussian, Inc.),
 the Gaussian 90(TM) system (copyright 1990, Gaussian, Inc.),
 the Gaussian 88(TM) system (copyright 1988, Gaussian, Inc.),
 the Gaussian 86(TM) system (copyright 1986, Carnegie Mellon
 University), and the Gaussian 82(TM) system (copyright 1983,
 Carnegie Mellon University). Gaussian is a federally registered
 trademark of Gaussian, Inc.
  
 This software contains proprietary and confidential information,
 including trade secrets, belonging to Gaussian, Inc.
  
 This software is provided under written license and may be
 used, copied, transmitted, or stored only in accord with that
 written license.
  
 The following legend is applicable only to US Government
 contracts under FAR:
  
                    RESTRICTED RIGHTS LEGEND
  
 Use, reproduction and disclosure by the US Government is
 subject to restrictions as set forth in subparagraphs (a)
 and (c) of the Commercial Computer Software - Restricted
 Rights clause in FAR 52.227-19.
  
 Gaussian, Inc.
 340 Quinnipiac St., Bldg. 40, Wallingford CT 06492
  
  
 ---------------------------------------------------------------
 Warning -- This program may not be used in any manner that
 competes with the business of Gaussian, Inc. or will provide
 assistance to any competitor of Gaussian, Inc.  The licensee
 of this program is prohibited from giving any competitor of
 Gaussian, Inc. access to this program.  By using this program,
 the user acknowledges that Gaussian, Inc. is engaged in the
 business of creating and licensing software in the field of
 computational chemistry and represents and warrants to the
 licensee that it is not a competitor of Gaussian, Inc. and that
 it will not use this program in any manner prohibited above.
 ---------------------------------------------------------------
  

 Cite this work as:
 Gaussian 16, Revision B.01,
 M. J. Frisch, G. W. Trucks, H. B. Schlegel, G. E. Scuseria, 
 M. A. Robb, J. R. Cheeseman, G. Scalmani, V. Barone, 
 G. A. Petersson, H. Nakatsuji, X. Li, M. Caricato, A. V. Marenich, 
 J. Bloino, B. G. Janesko, R. Gomperts, B. Mennucci, H. P. Hratchian, 
 J. V. Ortiz, A. F. Izmaylov, J. L. Sonnenberg, D. Williams-Young, 
 F. Ding, F. Lipparini, F. Egidi, J. Goings, B. Peng, A. Petrone, 
 T. Henderson, D. Ranasinghe, V. G. Zakrzewski, J. Gao, N. Rega, 
 G. Zheng, W. Liang, M. Hada, M. Ehara, K. Toyota, R. Fukuda, 
 J. Hasegawa, M. Ishida, T. Nakajima, Y. Honda, O. Kitao, H. Nakai, 
 T. Vreven, K. Throssell, J. A. Montgomery, Jr., J. E. Peralta, 
 F. Ogliaro, M. J. Bearpark, J. J. Heyd, E. N. Brothers, K. N. Kudin, 
 V. N. Staroverov, T. A. Keith, R. Kobayashi, J. Normand, 
 K. Raghavachari, A. P. Rendell, J. C. Burant, S. S. Iyengar, 
 J. Tomasi, M. Cossi, J. M. Millam, M. Klene, C. Adamo, R. Cammi, 
 J. W. Ochterski, R. L. Martin, K. Morokuma, O. Farkas, 
 J. B. Foresman, and D. J. Fox, Gaussian, Inc., Wallingford CT, 2016.
 
 ******************************************
 Gaussian 16:  ES64L-G16RevB.01 20-Dec-2017
                18-Jun-2018 
 ******************************************
 %nprocshared=4
 Will use up to    4 processors via shared memory.
 ----------------------------------------------------------------------
 # opt td=(root=1) wb97x/6-31+g(d) scrf=(solvent=water) geom=connectivi
 ty density=current
 ----------------------------------------------------------------------
 1/18=20,19=15,26=3,38=1,57=2/1,3;
 2/9=110,12=2,17=6,18=5,40=1/2;
 3/5=1,6=6,7=11,11=9,25=1,30=1,70=2201,71=1,72=1,74=-57/1,2,3,8;
 4//1;
 5/5=2,38=5,53=1/2;
 8/6=1,10=2,107=1/1;
 9/8=1,15=2,42=1,70=2/14;
 10/5=4,28=1/2;
 6/7=2,8=2,9=2,10=2,22=-1/1;
 7/12=6,13=5,14=1/1,2,3,16;
 1/18=20,19=15,26=3/3(2);
 2/9=110/2;
 99//99;
 2/9=110/2;
 3/5=1,6=6,7=11,11=9,25=1,30=1,70=2205,71=1,72=1,74=-57/1,2,3,8;
 4/5=5,16=3,69=1/1;
 5/5=2,38=5,53=1/2;
 8/6=1,10=2,107=1/1;
 9/8=1,15=2,42=1,49=4,70=2/14;
 10/5=4,28=1/2;
 7/12=6,13=5,14=1/1,2,3,16;
 1/18=20,19=15,26=3/3(-8);
 2/9=110/2;
 6/7=2,8=2,9=2,10=2,22=-1/1;
 99/9=10/99;
 -------------------
 Title Card Required
 -------------------
 Symbolic Z-matrix:
 Charge =  0 Multiplicity = 1
 C                    -0.24749   0.75084   0.00002 
 C                    -0.24943  -0.67005  -0.00005 
 C                     0.92979  -1.41536   0.00003 
 C                     2.12782  -0.71919   0.00018 
 C                     2.15398   0.68767   0.00026 
 C                     0.98239   1.42524   0.00018 
 C                    -1.61991   1.16615  -0.00007 
 C                    -2.38151   0.03005  -0.00033 
 H                     0.91105  -2.49702  -0.00003 
 H                     3.0602   -1.26758   0.00025 
 H                     3.10794   1.19791   0.00039 
 H                     1.01509   2.50714   0.00025 
 H                    -1.99376   2.17597  -0.00003 
 H                    -3.45168  -0.08631  -0.00051 
 H                    -1.88124  -2.02913  -0.00023 
 N                    -1.56307  -1.07614  -0.0002 
 

 GradGradGradGradGradGradGradGradGradGradGradGradGradGradGradGradGradGrad
 Berny optimization.
 Initialization pass.
                           ----------------------------
                           !    Initial Parameters    !
                           ! (Angstroms and Degrees)  !
 --------------------------                            --------------------------
 ! Name  Definition              Value          Derivative Info.                !
 --------------------------------------------------------------------------------
 ! R1    R(1,2)                  1.4209         estimate D2E/DX2                !
 ! R2    R(1,6)                  1.4026         estimate D2E/DX2                !
 ! R3    R(1,7)                  1.4339         estimate D2E/DX2                !
 ! R4    R(2,3)                  1.395          estimate D2E/DX2                !
 ! R5    R(2,16)                 1.375          estimate D2E/DX2                !
 ! R6    R(3,4)                  1.3856         estimate D2E/DX2                !
 ! R7    R(3,9)                  1.0818         estimate D2E/DX2                !
 ! R8    R(4,5)                  1.4071         estimate D2E/DX2                !
 ! R9    R(4,10)                 1.0817         estimate D2E/DX2                !
 ! R10   R(5,6)                  1.3844         estimate D2E/DX2                !
 ! R11   R(5,11)                 1.0818         estimate D2E/DX2                !
 ! R12   R(6,12)                 1.0824         estimate D2E/DX2                !
 ! R13   R(7,8)                  1.3678         estimate D2E/DX2                !
 ! R14   R(7,13)                 1.0768         estimate D2E/DX2                !
 ! R15   R(8,14)                 1.0765         estimate D2E/DX2                !
 ! R16   R(8,16)                 1.376          estimate D2E/DX2                !
 ! R17   R(15,16)                1.0047         estimate D2E/DX2                !
 ! A1    A(2,1,6)              118.8159         estimate D2E/DX2                !
 ! A2    A(2,1,7)              106.7581         estimate D2E/DX2                !
 ! A3    A(6,1,7)              134.426          estimate D2E/DX2                !
 ! A4    A(1,2,3)              122.216          estimate D2E/DX2                !
 ! A5    A(1,2,16)             107.2565         estimate D2E/DX2                !
 ! A6    A(3,2,16)             130.5275         estimate D2E/DX2                !
 ! A7    A(2,3,4)              117.5451         estimate D2E/DX2                !
 ! A8    A(2,3,9)              121.3015         estimate D2E/DX2                !
 ! A9    A(4,3,9)              121.1534         estimate D2E/DX2                !
 ! A10   A(3,4,5)              121.2259         estimate D2E/DX2                !
 ! A11   A(3,4,10)             119.377          estimate D2E/DX2                !
 ! A12   A(5,4,10)             119.3971         estimate D2E/DX2                !
 ! A13   A(4,5,6)              121.127          estimate D2E/DX2                !
 ! A14   A(4,5,11)             119.2059         estimate D2E/DX2                !
 ! A15   A(6,5,11)             119.6671         estimate D2E/DX2                !
 ! A16   A(1,6,5)              119.0701         estimate D2E/DX2                !
 ! A17   A(1,6,12)             120.4686         estimate D2E/DX2                !
 ! A18   A(5,6,12)             120.4613         estimate D2E/DX2                !
 ! A19   A(1,7,8)              107.0003         estimate D2E/DX2                !
 ! A20   A(1,7,13)             127.1517         estimate D2E/DX2                !
 ! A21   A(8,7,13)             125.848          estimate D2E/DX2                !
 ! A22   A(7,8,14)             130.0418         estimate D2E/DX2                !
 ! A23   A(7,8,16)             109.6666         estimate D2E/DX2                !
 ! A24   A(14,8,16)            120.2916         estimate D2E/DX2                !
 ! A25   A(2,16,8)             109.3185         estimate D2E/DX2                !
 ! A26   A(2,16,15)            125.6407         estimate D2E/DX2                !
 ! A27   A(8,16,15)            125.0408         estimate D2E/DX2                !
 ! D1    D(6,1,2,3)              0.0            estimate D2E/DX2                !
 ! D2    D(6,1,2,16)           179.9998         estimate D2E/DX2                !
 ! D3    D(7,1,2,3)           -179.999          estimate D2E/DX2                !
 ! D4    D(7,1,2,16)             0.0007         estimate D2E/DX2                !
 ! D5    D(2,1,6,5)             -0.0001         estimate D2E/DX2                !
 ! D6    D(2,1,6,12)          -179.9997         estimate D2E/DX2                !
 ! D7    D(7,1,6,5)            179.9986         estimate D2E/DX2                !
 ! D8    D(7,1,6,12)            -0.001          estimate D2E/DX2                !
 ! D9    D(2,1,7,8)             -0.0062         estimate D2E/DX2                !
 ! D10   D(2,1,7,13)           179.999          estimate D2E/DX2                !
 ! D11   D(6,1,7,8)            179.995          estimate D2E/DX2                !
 ! D12   D(6,1,7,13)             0.0002         estimate D2E/DX2                !
 ! D13   D(1,2,3,4)              0.0001         estimate D2E/DX2                !
 ! D14   D(1,2,3,9)            179.9997         estimate D2E/DX2                !
 ! D15   D(16,2,3,4)          -179.9996         estimate D2E/DX2                !
 ! D16   D(16,2,3,9)             0.0            estimate D2E/DX2                !
 ! D17   D(1,2,16,8)             0.005          estimate D2E/DX2                !
 ! D18   D(1,2,16,15)         -179.9961         estimate D2E/DX2                !
 ! D19   D(3,2,16,8)          -179.9953         estimate D2E/DX2                !
 ! D20   D(3,2,16,15)            0.0037         estimate D2E/DX2                !
 ! D21   D(2,3,4,5)             -0.0001         estimate D2E/DX2                !
 ! D22   D(2,3,4,10)           179.9996         estimate D2E/DX2                !
 ! D23   D(9,3,4,5)           -179.9997         estimate D2E/DX2                !
 ! D24   D(9,3,4,10)             0.0            estimate D2E/DX2                !
 ! D25   D(3,4,5,6)              0.0            estimate D2E/DX2                !
 ! D26   D(3,4,5,11)           179.9998         estimate D2E/DX2                !
 ! D27   D(10,4,5,6)          -179.9996         estimate D2E/DX2                !
 ! D28   D(10,4,5,11)            0.0001         estimate D2E/DX2                !
 ! D29   D(4,5,6,1)              0.0001         estimate D2E/DX2                !
 ! D30   D(4,5,6,12)           179.9997         estimate D2E/DX2                !
 ! D31   D(11,5,6,1)          -179.9997         estimate D2E/DX2                !
 ! D32   D(11,5,6,12)           -0.0001         estimate D2E/DX2                !
 ! D33   D(1,7,8,14)          -179.9974         estimate D2E/DX2                !
 ! D34   D(1,7,8,16)             0.0094         estimate D2E/DX2                !
 ! D35   D(13,7,8,14)           -0.0025         estimate D2E/DX2                !
 ! D36   D(13,7,8,16)         -179.9957         estimate D2E/DX2                !
 ! D37   D(7,8,16,2)            -0.0091         estimate D2E/DX2                !
 ! D38   D(7,8,16,15)          179.9919         estimate D2E/DX2                !
 ! D39   D(14,8,16,2)          179.9969         estimate D2E/DX2                !
 ! D40   D(14,8,16,15)          -0.0021         estimate D2E/DX2                !
 --------------------------------------------------------------------------------
 Trust Radius=3.00D-01 FncErr=1.00D-07 GrdErr=1.00D-06 EigMax=2.50D+02 EigMin=1.00D-04
 Number of steps in this run=     94 maximum allowed number of steps=    100.
 GradGradGradGradGradGradGradGradGradGradGradGradGradGradGradGradGradGrad

                          Input orientation:                          
 ---------------------------------------------------------------------
 Center     Atomic      Atomic             Coordinates (Angstroms)
 Number     Number       Type             X           Y           Z
 ---------------------------------------------------------------------
      1          6           0       -0.247494    0.750842    0.000023
      2          6           0       -0.249434   -0.670052   -0.000053
      3          6           0        0.929794   -1.415362    0.000025
      4          6           0        2.127822   -0.719192    0.000183
      5          6           0        2.153980    0.687670    0.000260
      6          6           0        0.982392    1.425236    0.000181
      7          6           0       -1.619907    1.166147   -0.000068
      8          6           0       -2.381510    0.030048   -0.000332
      9          1           0        0.911051   -2.497023   -0.000029
     10          1           0        3.060197   -1.267576    0.000254
     11          1           0        3.107944    1.197911    0.000387
     12          1           0        1.015087    2.507136    0.000247
     13          1           0       -1.993761    2.175972   -0.000030
     14          1           0       -3.451683   -0.086308   -0.000509
     15          1           0       -1.881236   -2.029134   -0.000225
     16          7           0       -1.563066   -1.076144   -0.000200
 ---------------------------------------------------------------------
                    Distance matrix (angstroms):
                    1          2          3          4          5
     1  C    0.000000
     2  C    1.420895   0.000000
     3  C    2.465451   1.395015   0.000000
     4  C    2.793408   2.377764   1.385613   0.000000
     5  C    2.402305   2.760400   2.433388   1.407105   0.000000
     6  C    1.402650   2.430561   2.841085   2.431169   1.384421
     7  C    1.433874   2.291249   3.628383   4.195233   3.804098
     8  C    2.252458   2.244078   3.613024   4.571153   4.582918
     9  H    3.448312   2.164382   1.081823   2.154348   3.418646
    10  H    3.874898   3.363137   2.135523   1.081688   2.155044
    11  H    3.385090   3.842040   3.401990   2.153119   1.081847
    12  H    2.163026   3.419581   3.923425   3.412825   2.146517
    13  H    2.253984   3.338043   4.630859   5.036807   4.406677
    14  H    3.311744   3.255020   4.578616   5.615284   5.658843
    15  H    3.224497   2.123648   2.877257   4.217641   4.864565
    16  N    2.251357   1.374969   2.515834   3.708109   4.114301
                    6          7          8          9         10
     6  C    0.000000
     7  C    2.615165   0.000000
     8  C    3.641756   1.367757   0.000000
     9  H    3.922908   4.452478   4.150548   0.000000
    10  H    3.401251   5.275072   5.594283   2.475958   0.000000
    11  H    2.137674   4.727958   5.612309   4.298706   2.465949
    12  H    1.082394   2.956593   4.203907   5.005240   4.293125
    13  H    3.069380   1.076807   2.180674   5.502255   6.115596
    14  H    4.684633   2.219019   1.076480   4.984475   6.618155
    15  H    4.486985   3.205950   2.119081   2.831216   4.999773
    16  N    3.568789   2.243011   1.376049   2.853095   4.627225
                   11         12         13         14         15
    11  H    0.000000
    12  H    2.468627   0.000000
    13  H    5.194612   3.027018   0.000000
    14  H    6.684155   5.165074   2.691365   0.000000
    15  H    5.941863   5.382047   4.206611   2.498175   0.000000
    16  N    5.195157   4.414382   3.280512   2.132287   1.004700
                   16
    16  N    0.000000
 Stoichiometry    C8H7N
 Framework group  C1[X(C8H7N)]
 Deg. of freedom    42
 Full point group                 C1      NOp   1
 Largest Abelian subgroup         C1      NOp   1
 Largest concise Abelian subgroup C1      NOp   1
                         Standard orientation:                         
 ---------------------------------------------------------------------
 Center     Atomic      Atomic             Coordinates (Angstroms)
 Number     Number       Type             X           Y           Z
 ---------------------------------------------------------------------
      1          6           0       -0.247494    0.750842    0.000023
      2          6           0       -0.249434   -0.670052   -0.000053
      3          6           0        0.929794   -1.415362    0.000025
      4          6           0        2.127822   -0.719192    0.000183
      5          6           0        2.153980    0.687670    0.000260
      6          6           0        0.982392    1.425236    0.000181
      7          6           0       -1.619907    1.166147   -0.000068
      8          6           0       -2.381510    0.030048   -0.000332
      9          1           0        0.911051   -2.497023   -0.000029
     10          1           0        3.060197   -1.267576    0.000254
     11          1           0        3.107944    1.197911    0.000387
     12          1           0        1.015087    2.507136    0.000247
     13          1           0       -1.993761    2.175972   -0.000030
     14          1           0       -3.451683   -0.086308   -0.000509
     15          1           0       -1.881236   -2.029134   -0.000225
     16          7           0       -1.563066   -1.076144   -0.000200
 ---------------------------------------------------------------------
 Rotational constants (GHZ):           3.8992709           1.6417600           1.1553206
 Standard basis: 6-31+G(d) (6D, 7F)
 There are   185 symmetry adapted cartesian basis functions of A   symmetry.
 There are   185 symmetry adapted basis functions of A   symmetry.
   185 basis functions,   316 primitive gaussians,   185 cartesian basis functions
    31 alpha electrons       31 beta electrons
       nuclear repulsion energy       401.0874340071 Hartrees.
 NAtoms=   16 NActive=   16 NUniq=   16 SFac= 1.00D+00 NAtFMM=   60 NAOKFM=F Big=F
 Integral buffers will be    131072 words long.
 Raffenetti 1 integral format.
 Two-electron integral symmetry is turned on.
 ------------------------------------------------------------------------------
 Polarizable Continuum Model (PCM)
 =================================
 Model                : PCM.
 Atomic radii         : UFF (Universal Force Field).
 Polarization charges : Total charges.
 Charge compensation  : None.
 Solution method      : On-the-fly selection.
 Cavity type          : Scaled VdW (van der Waals Surface) (Alpha=1.100).
 Cavity algorithm     : GePol (No added spheres)
                        Default sphere list used, NSphG=   16.
                        Lebedev-Laikov grids with approx.  5.0 points / Ang**2.
                        Smoothing algorithm: York/Karplus (Gamma=1.0000).
                        Polarization charges: spherical gaussians, with
                                              point-specific exponents (IZeta= 3).
                        Self-potential: point-specific (ISelfS= 7).
                        Self-field    : sphere-specific E.n sum rule (ISelfD= 2).
 1st derivatives      : Analytical E(r).r(x)/FMM algorithm (CHGder, D1EAlg=3).
                        Cavity 1st derivative terms included.
 Solvent              : Water, Eps=  78.355300 Eps(inf)=   1.777849
 ------------------------------------------------------------------------------
 Spheres list:
 ISph  on   Nord     Re0    Alpha      Xe            Ye            Ze
    1   C      1    1.9255  1.100     -0.247494      0.750842      0.000023
    2   C      2    1.9255  1.100     -0.249434     -0.670052     -0.000053
    3   C      3    1.9255  1.100      0.929794     -1.415362      0.000025
    4   C      4    1.9255  1.100      2.127822     -0.719192      0.000183
    5   C      5    1.9255  1.100      2.153980      0.687670      0.000260
    6   C      6    1.9255  1.100      0.982392      1.425236      0.000181
    7   C      7    1.9255  1.100     -1.619907      1.166147     -0.000068
    8   C      8    1.9255  1.100     -2.381510      0.030048     -0.000332
    9   H      9    1.4430  1.100      0.911051     -2.497023     -0.000029
   10   H     10    1.4430  1.100      3.060197     -1.267576      0.000254
   11   H     11    1.4430  1.100      3.107944      1.197911      0.000387
   12   H     12    1.4430  1.100      1.015087      2.507136      0.000247
   13   H     13    1.4430  1.100     -1.993761      2.175972     -0.000030
   14   H     14    1.4430  1.100     -3.451683     -0.086308     -0.000509
   15   H     15    1.4430  1.100     -1.881236     -2.029134     -0.000225
   16   N     16    1.8300  1.100     -1.563066     -1.076144     -0.000200
 ------------------------------------------------------------------------------
 One-electron integrals computed using PRISM.
 NBasis=   185 RedAO= T EigKep=  1.27D-06  NBF=   185
 NBsUse=   185 1.00D-06 EigRej= -1.00D+00 NBFU=   185
 ExpMin= 4.38D-02 ExpMax= 4.17D+03 ExpMxC= 6.27D+02 IAcc=3 IRadAn=         5 AccDes= 0.00D+00
 Harris functional with IExCor= 4538 and IRadAn=       5 diagonalized for initial guess.
 HarFok:  IExCor= 4538 AccDes= 0.00D+00 IRadAn=         5 IDoV= 1 UseB2=F ITyADJ=14
 ICtDFT=  3500011 ScaDFX=  1.000000  1.000000  1.000000  1.000000
 FoFCou: FMM=F IPFlag=           0 FMFlag=      100000 FMFlg1=           0
         NFxFlg=           0 DoJE=T BraDBF=F KetDBF=T FulRan=T
         wScrn=  0.000000 ICntrl=       500 IOpCl=  0 I1Cent=   200000004 NGrid=           0
         NMat0=    1 NMatS0=      1 NMatT0=    0 NMatD0=    1 NMtDS0=    0 NMtDT0=    0
 Petite list used in FoFCou.
 Requested convergence on RMS density matrix=1.00D-08 within 128 cycles.
 Requested convergence on MAX density matrix=1.00D-06.
 Requested convergence on             energy=1.00D-06.
 No special actions if energy rises.
 Inv3:  Mode=1 IEnd=     5663628.
 Iteration    1 A*A^-1 deviation from unit magnitude is 3.11D-15 for   1151.
 Iteration    1 A*A^-1 deviation from orthogonality  is 2.05D-15 for    868    576.
 Iteration    1 A^-1*A deviation from unit magnitude is 3.33D-15 for    369.
 Iteration    1 A^-1*A deviation from orthogonality  is 2.66D-15 for    866     56.
 Error on total polarization charges =  0.01632
 SCF Done:  E(RwB97X) =  -363.737493333     A.U. after   15 cycles
            NFock= 15  Conv=0.69D-08     -V/T= 2.0094
 DoSCS=F DFT=T ScalE2(SS,OS)=  1.000000  1.000000
 ExpMin= 4.38D-02 ExpMax= 4.17D+03 ExpMxC= 6.27D+02 IAcc=3 IRadAn=         5 AccDes= 0.00D+00
 HarFok:  IExCor=  205 AccDes= 0.00D+00 IRadAn=         5 IDoV=-2 UseB2=F ITyADJ=14
 ICtDFT= 12500011 ScaDFX=  1.000000  1.000000  1.000000  1.000000
 Range of M.O.s used for correlation:    10   185
 NBasis=   185 NAE=    31 NBE=    31 NFC=     9 NFV=     0
 NROrb=    176 NOA=    22 NOB=    22 NVA=   154 NVB=   154

 **** Warning!!: The largest alpha MO coefficient is  0.17463042D+03

 NEqPCM:  Using equilibrium solvation (IEInf=0, Eps=  78.3553, EpsInf=   1.7778)
 Orbital symmetries:
       Occupied  (A) (A) (A) (A) (A) (A) (A) (A) (A) (A) (A) (A)
                 (A) (A) (A) (A) (A) (A) (A) (A) (A) (A) (A) (A)
                 (A) (A) (A) (A) (A) (A) (A)
       Virtual   (A) (A) (A) (A) (A) (A) (A) (A) (A) (A) (A) (A)
                 (A) (A) (A) (A) (A) (A) (A) (A) (A) (A) (A) (A)
                 (A) (A) (A) (A) (A) (A) (A) (A) (A) (A) (A) (A)
                 (A) (A) (A) (A) (A) (A) (A) (A) (A) (A) (A) (A)
                 (A) (A) (A) (A) (A) (A) (A) (A) (A) (A) (A) (A)
                 (A) (A) (A) (A) (A) (A) (A) (A) (A) (A) (A) (A)
                 (A) (A) (A) (A) (A) (A) (A) (A) (A) (A) (A) (A)
                 (A) (A) (A) (A) (A) (A) (A) (A) (A) (A) (A) (A)
                 (A) (A) (A) (A) (A) (A) (A) (A) (A) (A) (A) (A)
                 (A) (A) (A) (A) (A) (A) (A) (A) (A) (A) (A) (A)
                 (A) (A) (A) (A) (A) (A) (A) (A) (A) (A) (A) (A)
                 (A) (A) (A) (A) (A) (A) (A) (A) (A) (A) (A) (A)
                 (A) (A) (A) (A) (A) (A) (A) (A) (A) (A)
    12 initial guesses have been made.
 Convergence on wavefunction:    0.000001000000000
 Iteration     1 Dimension    12 NMult     0 NNew     12
 CISAX will form    12 AO SS matrices at one time.
 New state      1 was old state      2
 New state      2 was old state      1
 Iteration     2 Dimension    18 NMult    12 NNew      6
 New state      1 was old state      2
 New state      2 was old state      1
 Iteration     3 Dimension    24 NMult    18 NNew      6
 Iteration     4 Dimension    30 NMult    24 NNew      6
 Iteration     5 Dimension    36 NMult    30 NNew      6
 Iteration     6 Dimension    42 NMult    36 NNew      6
 Iteration     7 Dimension    48 NMult    42 NNew      6
 Iteration     8 Dimension    54 NMult    48 NNew      6
 Iteration     9 Dimension    60 NMult    54 NNew      6
 Iteration    10 Dimension    66 NMult    60 NNew      6
 No map to state      3
 Iteration    11 Dimension    72 NMult    66 NNew      6
 Iteration    12 Dimension    76 NMult    72 NNew      4
 Iteration    13 Dimension    78 NMult    76 NNew      2
 Iteration    14 Dimension    80 NMult    78 NNew      2
 Iteration    15 Dimension    82 NMult    80 NNew      2
 Iteration    16 Dimension    84 NMult    82 NNew      2
 Iteration    17 Dimension    86 NMult    84 NNew      2
 Iteration    18 Dimension    88 NMult    86 NNew      2
 Iteration    19 Dimension    90 NMult    88 NNew      2
 Iteration    20 Dimension    92 NMult    90 NNew      2
 ***********************************************************************
 Excited states from <AA,BB:AA,BB> singles matrix:
 ***********************************************************************
 
 Ground to excited state transition densities written to RWF  633
 Ground to excited state transition electric dipole moments (Au):
       state          X           Y           Z        Dip. S.      Osc.
         1         1.0765      1.0794      0.0002      2.3241      0.2879
         2         1.0188     -0.3531      0.0001      1.1626      0.1454
         3         2.6798     -0.8393      0.0004      7.8857      1.1656
 Ground to excited state transition velocity dipole moments (Au):
       state          X           Y           Z        Dip. S.      Osc.
         1        -0.1874     -0.2072     -0.0000      0.0780      0.2800
         2        -0.1839      0.0677     -0.0000      0.0384      0.1364
         3        -0.5778      0.1843     -0.0001      0.3678      1.1058
 Ground to excited state transition magnetic dipole moments (Au):
       state          X           Y           Z
         1        -0.0000     -0.0001     -0.1587
         2        -0.0000     -0.0000      0.1571
         3        -0.0001     -0.0002      0.6004
 Ground to excited state transition velocity quadrupole moments (Au):
       state          XX          YY          ZZ          XY          XZ          YZ
         1         0.2527     -0.1780     -0.0035     -0.0205      0.0001     -0.0000
         2         0.0192     -0.1422      0.0153      0.0433      0.0000     -0.0000
         3        -0.2630     -0.0002     -0.0485      0.3783      0.0001      0.0000
 <0|del|b> * <b|rxdel|0> + <0|del|b> * <b|delr+rdel|0>
 Rotatory Strengths (R) in cgs (10**-40 erg-esu-cm/Gauss)
       state          XX          YY          ZZ    R(velocity)    E-M Angle
         1         0.0702      0.0332     -0.0092      0.0314       90.00
         2        -0.0160      0.0039      0.0050     -0.0024       90.00
         3        -0.2200      0.0018      0.0764     -0.0473       90.00
 1/2[<0|r|b>*<b|rxdel|0> + (<0|rxdel|b>*<b|r|0>)*]
 Rotatory Strengths (R) in cgs (10**-40 erg-esu-cm/Gauss)
       state          XX          YY          ZZ     R(length)
         1         0.0202      0.0477      0.0267      0.0315
         2         0.0158     -0.0104     -0.0125     -0.0024
         3         0.1357     -0.1230     -0.1577     -0.0483
  1/2[<0|del|b>*<b|r|0> + (<0|r|b>*<b|del|0>)*] (Au)
       state          X           Y           Z        Dip. S.   Osc.(frdel)
         1        -0.2017     -0.2236     -0.0000      0.4254      0.2836
         2        -0.1874     -0.0239     -0.0000      0.2113      0.1408
         3        -1.5483     -0.1547     -0.0000      1.7029      1.1353

 Excitation energies and oscillator strengths:
 
 Excited State   1:      Singlet-A      5.0566 eV  245.19 nm  f=0.2879  <S**2>=0.000
      30 -> 35         0.15196
      31 -> 32         0.67944
 This state for optimization and/or second-order correction.
 Total Energy, E(TD-HF/TD-DFT) =  -363.551666647    
 Copying the excited state density for this state as the 1-particle RhoCI density.
 
 Excited State   2:      Singlet-A      5.1063 eV  242.81 nm  f=0.1454  <S**2>=0.000
      30 -> 32         0.62127
      31 -> 35        -0.28931
 
 Excited State   3:      Singlet-A      6.0330 eV  205.51 nm  f=1.1656  <S**2>=0.000
      30 -> 32         0.29311
      31 -> 35         0.61629
 SavETr:  write IOETrn=   770 NScale= 10 NData=  16 NLR=1 NState=    3 LETran=      64.
          IDoAtm=1111111111111111
 NEqPCM:  Using equilibrium solvation (IEInf=0, Eps=  78.3553, EpsInf=   1.7778)
          Differentiating once with respect to electric field.
                with respect to dipole field.
          Differentiating once with respect to nuclear coordinates.
          There are     1 degrees of freedom in the 1st order CPHF.  IDoFFX=0 NUNeed=     1.
 LinEq1:  Iter=  0 NonCon=     1 RMS=3.99D-03 Max=5.38D-02 NDo=     1
 AX will form     1 AO Fock derivatives at one time.
 LinEq1:  Iter=  1 NonCon=     1 RMS=2.11D-03 Max=6.48D-02 NDo=     1
 LinEq1:  Iter=  2 NonCon=     1 RMS=6.77D-04 Max=1.39D-02 NDo=     1
 LinEq1:  Iter=  3 NonCon=     1 RMS=3.65D-04 Max=1.02D-02 NDo=     1
 LinEq1:  Iter=  4 NonCon=     1 RMS=1.38D-04 Max=3.14D-03 NDo=     1
 LinEq1:  Iter=  5 NonCon=     1 RMS=5.36D-05 Max=1.28D-03 NDo=     1
 LinEq1:  Iter=  6 NonCon=     1 RMS=2.21D-05 Max=4.28D-04 NDo=     1
 LinEq1:  Iter=  7 NonCon=     1 RMS=8.57D-06 Max=1.36D-04 NDo=     1
 LinEq1:  Iter=  8 NonCon=     1 RMS=3.57D-06 Max=9.06D-05 NDo=     1
 LinEq1:  Iter=  9 NonCon=     1 RMS=1.29D-06 Max=2.58D-05 NDo=     1
 LinEq1:  Iter= 10 NonCon=     1 RMS=6.47D-07 Max=1.53D-05 NDo=     1
 LinEq1:  Iter= 11 NonCon=     1 RMS=2.04D-07 Max=3.98D-06 NDo=     1
 LinEq1:  Iter= 12 NonCon=     1 RMS=6.67D-08 Max=1.27D-06 NDo=     1
 LinEq1:  Iter= 13 NonCon=     1 RMS=3.08D-08 Max=5.07D-07 NDo=     1
 LinEq1:  Iter= 14 NonCon=     1 RMS=7.84D-09 Max=1.66D-07 NDo=     1
 LinEq1:  Iter= 15 NonCon=     1 RMS=3.44D-09 Max=6.22D-08 NDo=     1
 LinEq1:  Iter= 16 NonCon=     1 RMS=1.10D-09 Max=1.87D-08 NDo=     1
 LinEq1:  Iter= 17 NonCon=     1 RMS=2.39D-10 Max=4.28D-09 NDo=     1
 LinEq1:  Iter= 18 NonCon=     1 RMS=8.81D-11 Max=1.12D-09 NDo=     1
 LinEq1:  Iter= 19 NonCon=     0 RMS=3.78D-11 Max=6.74D-10 NDo=     1
 Linear equations converged to 1.000D-10 1.000D-09 after    19 iterations.
 End of Minotr F.D. properties file   721 does not exist.
 End of Minotr F.D. properties file   722 does not exist.
 End of Minotr F.D. properties file   788 does not exist.

 **********************************************************************

            Population analysis using the CI Density.

 **********************************************************************

 Orbital symmetries:
       Occupied  (A) (A) (A) (A) (A) (A) (A) (A) (A) (A) (A) (A)
                 (A) (A) (A) (A) (A) (A) (A) (A) (A) (A) (A) (A)
                 (A) (A) (A) (A) (A) (A) (A)
       Virtual   (A) (A) (A) (A) (A) (A) (A) (A) (A) (A) (A) (A)
                 (A) (A) (A) (A) (A) (A) (A) (A) (A) (A) (A) (A)
                 (A) (A) (A) (A) (A) (A) (A) (A) (A) (A) (A) (A)
                 (A) (A) (A) (A) (A) (A) (A) (A) (A) (A) (A) (A)
                 (A) (A) (A) (A) (A) (A) (A) (A) (A) (A) (A) (A)
                 (A) (A) (A) (A) (A) (A) (A) (A) (A) (A) (A) (A)
                 (A) (A) (A) (A) (A) (A) (A) (A) (A) (A) (A) (A)
                 (A) (A) (A) (A) (A) (A) (A) (A) (A) (A) (A) (A)
                 (A) (A) (A) (A) (A) (A) (A) (A) (A) (A) (A) (A)
                 (A) (A) (A) (A) (A) (A) (A) (A) (A) (A) (A) (A)
                 (A) (A) (A) (A) (A) (A) (A) (A) (A) (A) (A) (A)
                 (A) (A) (A) (A) (A) (A) (A) (A) (A) (A) (A) (A)
                 (A) (A) (A) (A) (A) (A) (A) (A) (A) (A)
 The electronic state is 1-A.
 Alpha  occ. eigenvalues --  -14.46155 -10.31011 -10.30984 -10.28035 -10.27809
 Alpha  occ. eigenvalues --  -10.27722 -10.27646 -10.27207 -10.26437  -1.11887
 Alpha  occ. eigenvalues --   -0.98090  -0.91881  -0.87123  -0.85163  -0.75129
 Alpha  occ. eigenvalues --   -0.71786  -0.70684  -0.66082  -0.59884  -0.58891
 Alpha  occ. eigenvalues --   -0.54894  -0.54650  -0.54383  -0.52225  -0.50078
 Alpha  occ. eigenvalues --   -0.46371  -0.45399  -0.44068  -0.38843  -0.31883
 Alpha  occ. eigenvalues --   -0.29962
 Alpha virt. eigenvalues --    0.05278   0.07687   0.08829   0.09122   0.09124
 Alpha virt. eigenvalues --    0.10564   0.10973   0.11221   0.11705   0.12654
 Alpha virt. eigenvalues --    0.13470   0.13885   0.14450   0.15538   0.16619
 Alpha virt. eigenvalues --    0.17138   0.18003   0.18844   0.20043   0.20482
 Alpha virt. eigenvalues --    0.21984   0.22599   0.23620   0.24112   0.24288
 Alpha virt. eigenvalues --    0.24951   0.25339   0.25487   0.26472   0.27284
 Alpha virt. eigenvalues --    0.28076   0.28793   0.29049   0.29966   0.30310
 Alpha virt. eigenvalues --    0.30619   0.31118   0.31477   0.32648   0.33369
 Alpha virt. eigenvalues --    0.34345   0.34454   0.36286   0.37195   0.39103
 Alpha virt. eigenvalues --    0.39861   0.40031   0.41484   0.43699   0.45936
 Alpha virt. eigenvalues --    0.47291   0.49478   0.54043   0.54862   0.61636
 Alpha virt. eigenvalues --    0.68573   0.72967   0.76728   0.77539   0.79920
 Alpha virt. eigenvalues --    0.81638   0.81888   0.83241   0.83521   0.84648
 Alpha virt. eigenvalues --    0.84882   0.86142   0.87434   0.88868   0.90486
 Alpha virt. eigenvalues --    0.92153   0.95092   1.00223   1.01264   1.02637
 Alpha virt. eigenvalues --    1.04549   1.05299   1.06067   1.07041   1.09235
 Alpha virt. eigenvalues --    1.11217   1.13717   1.15319   1.18363   1.19695
 Alpha virt. eigenvalues --    1.21603   1.22017   1.27536   1.28307   1.30828
 Alpha virt. eigenvalues --    1.33120   1.33534   1.35601   1.42486   1.42702
 Alpha virt. eigenvalues --    1.44320   1.47030   1.51926   1.51976   1.55500
 Alpha virt. eigenvalues --    1.56612   1.56805   1.59959   1.60703   1.64598
 Alpha virt. eigenvalues --    1.69711   1.75806   1.89368   1.94908   1.98999
 Alpha virt. eigenvalues --    1.99564   2.02968   2.04891   2.10246   2.10651
 Alpha virt. eigenvalues --    2.11048   2.17355   2.20577   2.24801   2.27853
 Alpha virt. eigenvalues --    2.27919   2.30672   2.35724   2.36530   2.36984
 Alpha virt. eigenvalues --    2.39196   2.41924   2.48721   2.51727   2.55306
 Alpha virt. eigenvalues --    2.65734   2.66875   2.74304   2.76420   2.77451
 Alpha virt. eigenvalues --    2.80862   2.84561   2.91953   2.95515   2.96665
 Alpha virt. eigenvalues --    3.06511   3.08585   3.22688   3.35561   3.55454
 Alpha virt. eigenvalues --    4.27150   4.37598   4.40708   4.44289   4.47941
 Alpha virt. eigenvalues --    4.51566   4.59743   4.63901   4.90482
          Condensed to atoms (all electrons):
               1          2          3          4          5          6
     1  C   12.790889  -2.047155  -2.555899  -0.617510   0.111598  -1.054400
     2  C   -2.047155  11.372811  -2.422068   0.479713  -0.650178  -0.586015
     3  C   -2.555899  -2.422068  12.352943  -0.457014   0.365142  -2.422654
     4  C   -0.617510   0.479713  -0.457014   6.028777   0.421385   0.517385
     5  C    0.111598  -0.650178   0.365142   0.421385   5.624377  -0.262664
     6  C   -1.054400  -0.586015  -2.422654   0.517385  -0.262664  12.295025
     7  C   -3.856231   1.081958   2.763854  -0.252880   0.188187  -3.025289
     8  C    1.518938  -0.496209  -1.075297   0.031169  -0.083248   0.930332
     9  H    0.010444  -0.042415   0.374958  -0.036620   0.026972  -0.025269
    10  H   -0.007093   0.042558  -0.058766   0.369993  -0.053985   0.025200
    11  H    0.030716  -0.014874   0.018343  -0.034329   0.357331  -0.040588
    12  H   -0.005029   0.058447  -0.043759   0.026365  -0.067063   0.393254
    13  H    0.003000   0.020613   0.001118   0.000387   0.001458  -0.014896
    14  H   -0.039244   0.042535   0.015265  -0.000300   0.000861  -0.015936
    15  H    0.111703  -0.058938  -0.083321  -0.005397  -0.002171   0.021025
    16  N    0.753348  -0.150624  -0.539770   0.007986  -0.007320   0.117461
               7          8          9         10         11         12
     1  C   -3.856231   1.518938   0.010444  -0.007093   0.030716  -0.005029
     2  C    1.081958  -0.496209  -0.042415   0.042558  -0.014874   0.058447
     3  C    2.763854  -1.075297   0.374958  -0.058766   0.018343  -0.043759
     4  C   -0.252880   0.031169  -0.036620   0.369993  -0.034329   0.026365
     5  C    0.188187  -0.083248   0.026972  -0.053985   0.357331  -0.067063
     6  C   -3.025289   0.930332  -0.025269   0.025200  -0.040588   0.393254
     7  C   11.004505  -1.804075  -0.005241  -0.002804  -0.001144  -0.062402
     8  C   -1.804075   6.473018   0.006471   0.001410   0.000367   0.005518
     9  H   -0.005241   0.006471   0.467275  -0.002825  -0.000115   0.000013
    10  H   -0.002804   0.001410  -0.002825   0.479079  -0.003052  -0.000119
    11  H   -0.001144   0.000367  -0.000115  -0.003052   0.480830  -0.002919
    12  H   -0.062402   0.005518   0.000013  -0.000119  -0.002919   0.478115
    13  H    0.323626  -0.026724   0.000001   0.000000  -0.000001   0.001029
    14  H   -0.001780   0.366353   0.000003  -0.000000  -0.000000  -0.000001
    15  H   -0.011673  -0.008001   0.001353  -0.000001  -0.000000   0.000003
    16  N   -0.642485   0.558019  -0.002946  -0.000255   0.000192  -0.000728
              13         14         15         16
     1  C    0.003000  -0.039244   0.111703   0.753348
     2  C    0.020613   0.042535  -0.058938  -0.150624
     3  C    0.001118   0.015265  -0.083321  -0.539770
     4  C    0.000387  -0.000300  -0.005397   0.007986
     5  C    0.001458   0.000861  -0.002171  -0.007320
     6  C   -0.014896  -0.015936   0.021025   0.117461
     7  C    0.323626  -0.001780  -0.011673  -0.642485
     8  C   -0.026724   0.366353  -0.008001   0.558019
     9  H    0.000001   0.000003   0.001353  -0.002946
    10  H    0.000000  -0.000000  -0.000001  -0.000255
    11  H   -0.000001  -0.000000  -0.000000   0.000192
    12  H    0.001029  -0.000001   0.000003  -0.000728
    13  H    0.423896  -0.000332  -0.000049   0.005901
    14  H   -0.000332   0.414959  -0.001435  -0.043912
    15  H   -0.000049  -0.001435   0.266011   0.281002
    16  N    0.005901  -0.043912   0.281002   7.137837
 Mulliken charges:
               1
     1  C    0.851923
     2  C   -0.630157
     3  C   -0.233074
     4  C   -0.479108
     5  C    0.029318
     6  C   -0.851973
     7  C    0.303873
     8  C   -0.398039
     9  H    0.227942
    10  H    0.210660
    11  H    0.209241
    12  H    0.219275
    13  H    0.260973
    14  H    0.262965
    15  H    0.489890
    16  N   -0.473707
 Sum of Mulliken charges =  -0.00000
 Mulliken charges with hydrogens summed into heavy atoms:
               1
     1  C    0.851923
     2  C   -0.630157
     3  C   -0.005133
     4  C   -0.268448
     5  C    0.238559
     6  C   -0.632698
     7  C    0.564846
     8  C   -0.135075
    16  N    0.016182
 Electronic spatial extent (au):  <R**2>=           1006.8705
 Charge=             -0.0000 electrons
 Dipole moment (field-independent basis, Debye):
    X=             -4.9748    Y=             -1.9072    Z=             -0.0003  Tot=              5.3279
 Quadrupole moment (field-independent basis, Debye-Ang):
   XX=            -44.3800   YY=            -44.4065   ZZ=            -60.7043
   XY=              2.8056   XZ=              0.0016   YZ=              0.0010
 Traceless Quadrupole moment (field-independent basis, Debye-Ang):
   XX=              5.4503   YY=              5.4238   ZZ=            -10.8740
   XY=              2.8056   XZ=              0.0016   YZ=              0.0010
 Octapole moment (field-independent basis, Debye-Ang**2):
  XXX=            -34.4615  YYY=            -12.9345  ZZZ=             -0.0004  XYY=            -16.8810
  XXY=             -7.3118  XXZ=             -0.0026  XZZ=             -5.8217  YZZ=             -1.9905
  YYZ=             -0.0004  XYZ=             -0.0007
 Hexadecapole moment (field-independent basis, Debye-Ang**3):
 XXXX=           -821.8870 YYYY=           -375.5855 ZZZZ=            -86.4122 XXXY=             21.4768
 XXXZ=             -0.0237 YYYX=             15.5256 YYYZ=             -0.0033 ZZZX=             -0.0579
 ZZZY=             -0.0115 XXYY=           -187.6897 XXZZ=           -199.0821 YYZZ=           -101.6842
 XXYZ=              0.0019 YYXZ=             -0.0109 ZZXY=              2.0721
 N-N= 4.010874340071D+02 E-N=-1.644502436851D+03  KE= 3.604623331163D+02
 D1PCM: PCM CHGder 1st derivatives, ID1Alg=3 FixD1E=F DoIter=F DoCFld=F I1PDM=6.
 Calling FoFJK, ICntrl=  10005127 FMM=F ISym2X=0 I1Cent= 0 IOpClX= 0 NMat=1 NMatS=1 NMatT=0.
 ***** Axes restored to original set *****
 -------------------------------------------------------------------
 Center     Atomic                   Forces (Hartrees/Bohr)
 Number     Number              X              Y              Z
 -------------------------------------------------------------------
      1        6          -0.041910567   -0.009408232    0.000001863
      2        6           0.020199658    0.003212179    0.000006227
      3        6          -0.059307617   -0.028115222   -0.000008897
      4        6           0.051578311    0.054466745    0.000008924
      5        6           0.024628595   -0.042722842    0.000000673
      6        6          -0.002055258    0.034629203    0.000001048
      7        6           0.054398377    0.019896714   -0.000002603
      8        6          -0.029778065   -0.054452608    0.000003158
      9        1          -0.001028476   -0.004086158   -0.000000284
     10        1           0.003916005   -0.001451507    0.000000350
     11        1           0.003808140    0.001591935    0.000000347
     12        1          -0.000309207    0.004338766    0.000000282
     13        1          -0.001784471    0.003939264   -0.000000299
     14        1          -0.003713156   -0.000798141    0.000001164
     15        1          -0.002851101   -0.005955223   -0.000003189
     16        7          -0.015791169    0.024915127   -0.000008765
 -------------------------------------------------------------------
 Cartesian Forces:  Max     0.059307617 RMS     0.022387802

 GradGradGradGradGradGradGradGradGradGradGradGradGradGradGradGradGradGrad
 Berny optimization.
 FormGI is forming the generalized inverse of G from B-inverse, IUseBI=4.
 Internal  Forces:  Max     0.063816126 RMS     0.011246225
 Search for a local minimum.
 Step number   1 out of a maximum of   94
 All quantities printed in internal units (Hartrees-Bohrs-Radians)
 Mixed Optimization -- RFO/linear search
 Second derivative matrix not updated -- first step.
 ITU=  0
     Eigenvalues ---    0.01836   0.01922   0.02001   0.02016   0.02054
     Eigenvalues ---    0.02091   0.02127   0.02146   0.02150   0.02188
     Eigenvalues ---    0.02214   0.02227   0.02323   0.16000   0.16000
     Eigenvalues ---    0.16000   0.16000   0.16000   0.16000   0.16000
     Eigenvalues ---    0.22000   0.22188   0.22661   0.24010   0.24651
     Eigenvalues ---    0.35707   0.35772   0.35775   0.35791   0.36383
     Eigenvalues ---    0.36423   0.36832   0.38328   0.42427   0.43192
     Eigenvalues ---    0.45523   0.46800   0.46871   0.47293   0.47711
     Eigenvalues ---    0.47863   0.50688
 RFO step:  Lambda=-2.20763552D-02 EMin= 1.83568094D-02
 Linear search not attempted -- first point.
 Iteration  1 RMS(Cart)=  0.03090968 RMS(Int)=  0.00023134
 Iteration  2 RMS(Cart)=  0.00021870 RMS(Int)=  0.00010879
 Iteration  3 RMS(Cart)=  0.00000006 RMS(Int)=  0.00010879
 Variable       Old X    -DE/DX   Delta X   Delta X   Delta X     New X
                                 (Linear)    (Quad)   (Total)
    R1        2.68510   0.00091   0.00000  -0.00323  -0.00348   2.68162
    R2        2.65062   0.03217   0.00000   0.06743   0.06743   2.71805
    R3        2.70963  -0.01845   0.00000  -0.04333  -0.04360   2.66603
    R4        2.63620  -0.00437   0.00000  -0.01024  -0.01028   2.62592
    R5        2.59831   0.01673   0.00000   0.03038   0.03052   2.62884
    R6        2.61843   0.06382   0.00000   0.12735   0.12735   2.74578
    R7        2.04435   0.00410   0.00000   0.01081   0.01081   2.05515
    R8        2.65904  -0.02087   0.00000  -0.04297  -0.04292   2.61612
    R9        2.04409   0.00411   0.00000   0.01082   0.01082   2.05491
   R10        2.61618   0.03517   0.00000   0.07084   0.07088   2.68706
   R11        2.04439   0.00411   0.00000   0.01082   0.01082   2.05521
   R12        2.04543   0.00433   0.00000   0.01141   0.01141   2.05684
   R13        2.58469   0.04674   0.00000   0.08999   0.09004   2.67472
   R14        2.03487   0.00431   0.00000   0.01118   0.01118   2.04605
   R15        2.03425   0.00378   0.00000   0.00978   0.00978   2.04403
   R16        2.60036  -0.01993   0.00000  -0.03643  -0.03613   2.56423
   R17        1.89861   0.00655   0.00000   0.01335   0.01335   1.91196
    A1        2.07373   0.00296   0.00000   0.00933   0.00947   2.08320
    A2        1.86328  -0.00119   0.00000  -0.00861  -0.00904   1.85424
    A3        2.34618  -0.00177   0.00000  -0.00072  -0.00043   2.34574
    A4        2.13307   0.00271   0.00000   0.00845   0.00836   2.14143
    A5        1.87198   0.00195   0.00000   0.00080   0.00078   1.87276
    A6        2.27813  -0.00466   0.00000  -0.00925  -0.00914   2.26899
    A7        2.05155  -0.00073   0.00000  -0.00576  -0.00585   2.04570
    A8        2.11711  -0.00062   0.00000  -0.00251  -0.00246   2.11465
    A9        2.11453   0.00134   0.00000   0.00826   0.00831   2.12284
   A10        2.11579  -0.00073   0.00000   0.00012   0.00013   2.11592
   A11        2.08352   0.00111   0.00000   0.00405   0.00404   2.08757
   A12        2.08387  -0.00038   0.00000  -0.00417  -0.00417   2.07970
   A13        2.11407  -0.00055   0.00000   0.00248   0.00253   2.11659
   A14        2.08054  -0.00013   0.00000  -0.00346  -0.00348   2.07705
   A15        2.08858   0.00068   0.00000   0.00097   0.00095   2.08954
   A16        2.07817  -0.00366   0.00000  -0.01463  -0.01464   2.06353
   A17        2.10257   0.00138   0.00000   0.00486   0.00486   2.10743
   A18        2.10245   0.00228   0.00000   0.00978   0.00978   2.11223
   A19        1.86751   0.00634   0.00000   0.03048   0.03025   1.89776
   A20        2.21922  -0.00286   0.00000  -0.01355  -0.01343   2.20579
   A21        2.19646  -0.00348   0.00000  -0.01694  -0.01682   2.17964
   A22        2.26966   0.00721   0.00000   0.02641   0.02627   2.29592
   A23        1.91404  -0.01363   0.00000  -0.04848  -0.04818   1.86586
   A24        2.09949   0.00642   0.00000   0.02206   0.02191   2.12140
   A25        1.90797   0.00653   0.00000   0.02581   0.02618   1.93415
   A26        2.19284  -0.00248   0.00000  -0.00863  -0.00881   2.18403
   A27        2.18237  -0.00404   0.00000  -0.01718  -0.01737   2.16501
    D1        0.00000   0.00000   0.00000  -0.00000  -0.00001  -0.00001
    D2        3.14159   0.00000   0.00000   0.00001   0.00001  -3.14159
    D3       -3.14158  -0.00000   0.00000  -0.00003  -0.00003   3.14158
    D4        0.00001  -0.00000   0.00000  -0.00002  -0.00002  -0.00000
    D5       -0.00000  -0.00000   0.00000  -0.00001  -0.00001  -0.00001
    D6       -3.14159  -0.00000   0.00000  -0.00001  -0.00001   3.14159
    D7        3.14157   0.00000   0.00000   0.00002   0.00002   3.14159
    D8       -0.00002   0.00000   0.00000   0.00002   0.00002   0.00001
    D9       -0.00011   0.00000   0.00000   0.00009   0.00010  -0.00001
   D10        3.14158   0.00000   0.00000   0.00001   0.00001   3.14158
   D11        3.14151   0.00000   0.00000   0.00007   0.00007   3.14157
   D12        0.00000  -0.00000   0.00000  -0.00002  -0.00002  -0.00002
   D13        0.00000   0.00000   0.00000   0.00002   0.00002   0.00002
   D14        3.14159   0.00000   0.00000   0.00001   0.00001  -3.14159
   D15       -3.14159  -0.00000   0.00000   0.00000   0.00000  -3.14158
   D16       -0.00000  -0.00000   0.00000  -0.00001  -0.00001  -0.00001
   D17        0.00009  -0.00000   0.00000  -0.00007  -0.00007   0.00002
   D18       -3.14152   0.00000   0.00000  -0.00001  -0.00002  -3.14154
   D19       -3.14151  -0.00000   0.00000  -0.00005  -0.00006  -3.14157
   D20        0.00006   0.00000   0.00000  -0.00000  -0.00000   0.00006
   D21       -0.00000  -0.00000   0.00000  -0.00002  -0.00002  -0.00002
   D22        3.14159  -0.00000   0.00000  -0.00001  -0.00001   3.14158
   D23       -3.14159  -0.00000   0.00000  -0.00000  -0.00000  -3.14159
   D24       -0.00000   0.00000   0.00000   0.00000   0.00000   0.00000
   D25        0.00000   0.00000   0.00000   0.00000   0.00000   0.00000
   D26        3.14159   0.00000   0.00000   0.00001   0.00001  -3.14159
   D27       -3.14159  -0.00000   0.00000  -0.00001  -0.00001   3.14159
   D28        0.00000   0.00000   0.00000   0.00000   0.00000   0.00000
   D29        0.00000   0.00000   0.00000   0.00001   0.00001   0.00001
   D30        3.14159   0.00000   0.00000   0.00001   0.00001  -3.14159
   D31       -3.14159   0.00000   0.00000   0.00000   0.00000  -3.14158
   D32       -0.00000  -0.00000   0.00000   0.00000   0.00000  -0.00000
   D33       -3.14155  -0.00000   0.00000  -0.00005  -0.00005   3.14158
   D34        0.00016  -0.00001   0.00000  -0.00014  -0.00014   0.00002
   D35       -0.00004   0.00000   0.00000   0.00003   0.00003  -0.00001
   D36       -3.14152  -0.00000   0.00000  -0.00005  -0.00005  -3.14157
   D37       -0.00016   0.00001   0.00000   0.00014   0.00013  -0.00003
   D38        3.14145   0.00000   0.00000   0.00009   0.00008   3.14153
   D39        3.14154   0.00000   0.00000   0.00006   0.00006  -3.14159
   D40       -0.00004   0.00000   0.00000   0.00001   0.00000  -0.00003
         Item               Value     Threshold  Converged?
 Maximum Force            0.063816     0.000450     NO 
 RMS     Force            0.011246     0.000300     NO 
 Maximum Displacement     0.100427     0.001800     NO 
 RMS     Displacement     0.030909     0.001200     NO 
 Predicted change in Energy=-1.156115D-02
 GradGradGradGradGradGradGradGradGradGradGradGradGradGradGradGradGradGrad

                          Input orientation:                          
 ---------------------------------------------------------------------
 Center     Atomic      Atomic             Coordinates (Angstroms)
 Number     Number       Type             X           Y           Z
 ---------------------------------------------------------------------
      1          6           0       -0.256270    0.753874    0.000014
      2          6           0       -0.262251   -0.665165   -0.000066
      3          6           0        0.903983   -1.420689    0.000009
      4          6           0        2.164176   -0.697408    0.000200
      5          6           0        2.197513    0.686581    0.000283
      6          6           0        1.000298    1.453756    0.000184
      7          6           0       -1.609101    1.154136   -0.000113
      8          6           0       -2.425299   -0.002231   -0.000284
      9          1           0        0.870276   -2.507707   -0.000056
     10          1           0        3.100758   -1.249932    0.000279
     11          1           0        3.161088    1.190897    0.000421
     12          1           0        1.031259    2.541749    0.000246
     13          1           0       -1.977644    2.172206   -0.000089
     14          1           0       -3.500357   -0.121509   -0.000408
     15          1           0       -1.906089   -2.035107   -0.000275
     16          7           0       -1.592162   -1.073278   -0.000231
 ---------------------------------------------------------------------
                    Distance matrix (angstroms):
                    1          2          3          4          5
     1  C    0.000000
     2  C    1.419052   0.000000
     3  C    2.464733   1.389575   0.000000
     4  C    2.822194   2.426642   1.453005   0.000000
     5  C    2.454705   2.806716   2.472611   1.384391   0.000000
     6  C    1.438331   2.466548   2.876058   2.445838   1.421929
     7  C    1.410802   2.263595   3.597959   4.203075   3.835220
     8  C    2.297038   2.262357   3.618859   4.641827   4.673848
     9  H    3.450654   2.162771   1.087541   2.225166   3.459051
    10  H    3.909587   3.413471   2.203402   1.087414   2.136805
    11  H    3.445188   3.894126   3.451797   2.135305   1.087572
    12  H    2.203231   3.457957   3.964481   3.431565   2.191300
    13  H    2.230425   3.315607   4.605721   5.038786   4.431593
    14  H    3.360119   3.283427   4.591958   5.693733   5.754887
    15  H    3.240419   2.139846   2.876458   4.284448   4.924138
    16  N    2.263425   1.391121   2.520205   3.775097   4.178366
                    6          7          8          9         10
     6  C    0.000000
     7  C    2.626544   0.000000
     8  C    3.722179   1.415403   0.000000
     9  H    3.963597   4.422262   4.139834   0.000000
    10  H    3.423721   5.287941   5.665163   2.560674   0.000000
    11  H    2.176720   4.770331   5.712379   4.350574   2.441575
    12  H    1.088433   2.982780   4.291810   5.052022   4.319684
    13  H    3.063382   1.082724   2.220039   5.478342   6.123822
    14  H    4.768370   2.281254   1.081654   4.979595   6.696870
    15  H    4.540843   3.203041   2.098133   2.816301   5.068039
    16  N    3.620325   2.227479   1.356930   2.849770   4.696244
                   11         12         13         14         15
    11  H    0.000000
    12  H    2.522097   0.000000
    13  H    5.231590   3.031512   0.000000
    14  H    6.789496   5.256281   2.753141   0.000000
    15  H    6.006945   5.438348   4.207921   2.490692   0.000000
    16  N    5.264967   4.466628   3.268297   2.132386   1.011763
                   16
    16  N    0.000000
 Stoichiometry    C8H7N
 Framework group  C1[X(C8H7N)]
 Deg. of freedom    42
 Full point group                 C1      NOp   1
 Largest Abelian subgroup         C1      NOp   1
 Largest concise Abelian subgroup C1      NOp   1
                         Standard orientation:                         
 ---------------------------------------------------------------------
 Center     Atomic      Atomic             Coordinates (Angstroms)
 Number     Number       Type             X           Y           Z
 ---------------------------------------------------------------------
      1          6           0       -0.239270    0.758087    0.000016
      2          6           0       -0.274523   -0.660526   -0.000063
      3          6           0        0.875878   -1.439946    0.000011
      4          6           0        2.150723   -0.742815    0.000202
      5          6           0        2.212602    0.640192    0.000285
      6          6           0        1.031467    1.431900    0.000187
      7          6           0       -1.583557    1.186171   -0.000111
      8          6           0       -2.423436    0.046887   -0.000282
      9          1           0        0.819754   -2.526038   -0.000053
     10          1           0        3.075708   -1.314542    0.000281
     11          1           0        3.186375    1.124523    0.000423
     12          1           0        1.084866    2.519023    0.000248
     13          1           0       -1.931021    2.211627   -0.000086
     14          1           0       -3.500725   -0.050189   -0.000406
     15          1           0       -1.946270   -1.996267   -0.000272
     16          7           0       -1.612570   -1.041119   -0.000229
 ---------------------------------------------------------------------
 Rotational constants (GHZ):           3.8864620           1.5975222           1.1321530
 Standard basis: 6-31+G(d) (6D, 7F)
 There are   185 symmetry adapted cartesian basis functions of A   symmetry.
 There are   185 symmetry adapted basis functions of A   symmetry.
   185 basis functions,   316 primitive gaussians,   185 cartesian basis functions
    31 alpha electrons       31 beta electrons
       nuclear repulsion energy       397.6468714052 Hartrees.
 NAtoms=   16 NActive=   16 NUniq=   16 SFac= 1.00D+00 NAtFMM=   60 NAOKFM=F Big=F
 Integral buffers will be    131072 words long.
 Raffenetti 1 integral format.
 Two-electron integral symmetry is turned on.
 ------------------------------------------------------------------------------
 Polarizable Continuum Model (PCM)
 =================================
 Model                : PCM.
 Atomic radii         : UFF (Universal Force Field).
 Polarization charges : Total charges.
 Charge compensation  : None.
 Solution method      : On-the-fly selection.
 Cavity type          : Scaled VdW (van der Waals Surface) (Alpha=1.100).
 Cavity algorithm     : GePol (No added spheres)
                        Default sphere list used, NSphG=   16.
                        Lebedev-Laikov grids with approx.  5.0 points / Ang**2.
                        Smoothing algorithm: York/Karplus (Gamma=1.0000).
                        Polarization charges: spherical gaussians, with
                                              point-specific exponents (IZeta= 3).
                        Self-potential: point-specific (ISelfS= 7).
                        Self-field    : sphere-specific E.n sum rule (ISelfD= 2).
 1st derivatives      : Analytical E(r).r(x)/FMM algorithm (CHGder, D1EAlg=3).
                        Cavity 1st derivative terms included.
 Solvent              : Water, Eps=  78.355300 Eps(inf)=   1.777849
 ------------------------------------------------------------------------------
 Spheres list:
 ISph  on   Nord     Re0    Alpha      Xe            Ye            Ze
    1   C      1    1.9255  1.100     -0.239270      0.758087      0.000016
    2   C      2    1.9255  1.100     -0.274523     -0.660526     -0.000063
    3   C      3    1.9255  1.100      0.875878     -1.439946      0.000011
    4   C      4    1.9255  1.100      2.150723     -0.742815      0.000202
    5   C      5    1.9255  1.100      2.212602      0.640192      0.000285
    6   C      6    1.9255  1.100      1.031467      1.431900      0.000187
    7   C      7    1.9255  1.100     -1.583557      1.186171     -0.000111
    8   C      8    1.9255  1.100     -2.423436      0.046887     -0.000282
    9   H      9    1.4430  1.100      0.819754     -2.526038     -0.000053
   10   H     10    1.4430  1.100      3.075708     -1.314542      0.000281
   11   H     11    1.4430  1.100      3.186375      1.124523      0.000423
   12   H     12    1.4430  1.100      1.084866      2.519023      0.000248
   13   H     13    1.4430  1.100     -1.931021      2.211627     -0.000086
   14   H     14    1.4430  1.100     -3.500725     -0.050189     -0.000406
   15   H     15    1.4430  1.100     -1.946270     -1.996267     -0.000272
   16   N     16    1.8300  1.100     -1.612570     -1.041119     -0.000229
 ------------------------------------------------------------------------------
 One-electron integrals computed using PRISM.
 NBasis=   185 RedAO= T EigKep=  1.28D-06  NBF=   185
 NBsUse=   185 1.00D-06 EigRej= -1.00D+00 NBFU=   185
 Initial guess from the checkpoint file:  "/scratch/wenqinhe/17151548/Gau-10655.chk"
 B after Tr=    -0.000000   -0.000000   -0.000000
         Rot=    0.999951   -0.000000    0.000001    0.009926 Ang=  -1.14 deg.
 ExpMin= 4.38D-02 ExpMax= 4.17D+03 ExpMxC= 6.27D+02 IAcc=3 IRadAn=         5 AccDes= 0.00D+00
 Harris functional with IExCor= 4538 and IRadAn=       5 diagonalized for initial guess.
 HarFok:  IExCor= 4538 AccDes= 0.00D+00 IRadAn=         5 IDoV= 1 UseB2=F ITyADJ=14
 ICtDFT=  3500011 ScaDFX=  1.000000  1.000000  1.000000  1.000000
 FoFCou: FMM=F IPFlag=           0 FMFlag=      100000 FMFlg1=           0
         NFxFlg=           0 DoJE=T BraDBF=F KetDBF=T FulRan=T
         wScrn=  0.000000 ICntrl=       500 IOpCl=  0 I1Cent=   200000004 NGrid=           0
         NMat0=    1 NMatS0=      1 NMatT0=    0 NMatD0=    1 NMtDS0=    0 NMtDT0=    0
 Petite list used in FoFCou.
 Requested convergence on RMS density matrix=1.00D-08 within 128 cycles.
 Requested convergence on MAX density matrix=1.00D-06.
 Requested convergence on             energy=1.00D-06.
 No special actions if energy rises.
 Inv3:  Mode=1 IEnd=     5746368.
 Iteration    1 A*A^-1 deviation from unit magnitude is 2.66D-15 for    191.
 Iteration    1 A*A^-1 deviation from orthogonality  is 2.57D-15 for    962    419.
 Iteration    1 A^-1*A deviation from unit magnitude is 2.89D-15 for    241.
 Iteration    1 A^-1*A deviation from orthogonality  is 1.79D-15 for    769    375.
 Error on total polarization charges =  0.01676
 SCF Done:  E(RwB97X) =  -363.728454265     A.U. after   15 cycles
            NFock= 15  Conv=0.40D-08     -V/T= 2.0105
 DoSCS=F DFT=T ScalE2(SS,OS)=  1.000000  1.000000
 ExpMin= 4.38D-02 ExpMax= 4.17D+03 ExpMxC= 6.27D+02 IAcc=3 IRadAn=         5 AccDes= 0.00D+00
 HarFok:  IExCor=  205 AccDes= 0.00D+00 IRadAn=         5 IDoV=-2 UseB2=F ITyADJ=14
 ICtDFT= 12500011 ScaDFX=  1.000000  1.000000  1.000000  1.000000
 Range of M.O.s used for correlation:    10   185
 NBasis=   185 NAE=    31 NBE=    31 NFC=     9 NFV=     0
 NROrb=    176 NOA=    22 NOB=    22 NVA=   154 NVB=   154

 **** Warning!!: The largest alpha MO coefficient is  0.20013063D+03

 NEqPCM:  Using equilibrium solvation (IEInf=0, Eps=  78.3553, EpsInf=   1.7778)
 Orbital symmetries:
       Occupied  (A) (A) (A) (A) (A) (A) (A) (A) (A) (A) (A) (A)
                 (A) (A) (A) (A) (A) (A) (A) (A) (A) (A) (A) (A)
                 (A) (A) (A) (A) (A) (A) (A)
       Virtual   (A) (A) (A) (A) (A) (A) (A) (A) (A) (A) (A) (A)
                 (A) (A) (A) (A) (A) (A) (A) (A) (A) (A) (A) (A)
                 (A) (A) (A) (A) (A) (A) (A) (A) (A) (A) (A) (A)
                 (A) (A) (A) (A) (A) (A) (A) (A) (A) (A) (A) (A)
                 (A) (A) (A) (A) (A) (A) (A) (A) (A) (A) (A) (A)
                 (A) (A) (A) (A) (A) (A) (A) (A) (A) (A) (A) (A)
                 (A) (A) (A) (A) (A) (A) (A) (A) (A) (A) (A) (A)
                 (A) (A) (A) (A) (A) (A) (A) (A) (A) (A) (A) (A)
                 (A) (A) (A) (A) (A) (A) (A) (A) (A) (A) (A) (A)
                 (A) (A) (A) (A) (A) (A) (A) (A) (A) (A) (A) (A)
                 (A) (A) (A) (A) (A) (A) (A) (A) (A) (A) (A) (A)
                 (A) (A) (A) (A) (A) (A) (A) (A) (A) (A) (A) (A)
                 (A) (A) (A) (A) (A) (A) (A) (A) (A) (A)
 Generating guess from densities on rwf.
 Convergence on wavefunction:    0.000001000000000
 Iteration     1 Dimension     6 NMult     0 NNew      6
 CISAX will form     6 AO SS matrices at one time.
 Iteration     2 Dimension    12 NMult     6 NNew      6
 Iteration     3 Dimension    18 NMult    12 NNew      6
 Iteration     4 Dimension    24 NMult    18 NNew      6
 Iteration     5 Dimension    30 NMult    24 NNew      6
 Iteration     6 Dimension    36 NMult    30 NNew      6
 Iteration     7 Dimension    42 NMult    36 NNew      6
 Iteration     8 Dimension    48 NMult    42 NNew      6
 Iteration     9 Dimension    54 NMult    48 NNew      6
 Iteration    10 Dimension    60 NMult    54 NNew      6
 Iteration    11 Dimension    62 NMult    60 NNew      2
 Iteration    12 Dimension    64 NMult    62 NNew      2
 Iteration    13 Dimension    66 NMult    64 NNew      2
 Iteration    14 Dimension    68 NMult    66 NNew      2
 Iteration    15 Dimension    70 NMult    68 NNew      2
 Iteration    16 Dimension    72 NMult    70 NNew      2
 Iteration    17 Dimension    74 NMult    72 NNew      2
 Iteration    18 Dimension    76 NMult    74 NNew      2
 Iteration    19 Dimension    78 NMult    76 NNew      2
 Iteration    20 Dimension    80 NMult    78 NNew      2
 ***********************************************************************
 Excited states from <AA,BB:AA,BB> singles matrix:
 ***********************************************************************
 
 Ground to excited state transition densities written to RWF  633
 Ground to excited state transition electric dipole moments (Au):
       state          X           Y           Z        Dip. S.      Osc.
         1         1.4669      1.1338      0.0002      3.4374      0.3759
         2         0.5506     -0.4187      0.0000      0.4785      0.0584
         3         2.6055     -1.1300      0.0003      8.0655      1.1447
 Ground to excited state transition velocity dipole moments (Au):
       state          X           Y           Z        Dip. S.      Osc.
         1        -0.2264     -0.1931     -0.0000      0.0885      0.3599
         2        -0.0966      0.0784     -0.0000      0.0155      0.0564
         3        -0.5381      0.2387     -0.0001      0.3466      1.0854
 Ground to excited state transition magnetic dipole moments (Au):
       state          X           Y           Z
         1         0.0000     -0.0000     -0.1088
         2        -0.0000      0.0000     -0.0055
         3        -0.0001     -0.0001      0.7217
 Ground to excited state transition velocity quadrupole moments (Au):
       state          XX          YY          ZZ          XY          XZ          YZ
         1         0.2082     -0.1860     -0.0032     -0.0773      0.0000     -0.0000
         2         0.0357     -0.1224      0.0249      0.0111     -0.0000     -0.0000
         3        -0.1007     -0.0707     -0.0374      0.4953      0.0001      0.0000
 <0|del|b> * <b|rxdel|0> + <0|del|b> * <b|delr+rdel|0>
 Rotatory Strengths (R) in cgs (10**-40 erg-esu-cm/Gauss)
       state          XX          YY          ZZ    R(velocity)    E-M Angle
         1         0.0291      0.0013     -0.0243      0.0020       90.00
         2         0.0010      0.0021      0.0001      0.0011       90.00
         3        -0.1634      0.0243      0.1112     -0.0093       90.00
 1/2[<0|r|b>*<b|rxdel|0> + (<0|rxdel|b>*<b|r|0>)*]
 Rotatory Strengths (R) in cgs (10**-40 erg-esu-cm/Gauss)
       state          XX          YY          ZZ     R(length)
         1        -0.0178      0.0047      0.0185      0.0018
         2         0.0013      0.0018      0.0002      0.0011
         3         0.1725     -0.0644     -0.1363     -0.0094
  1/2[<0|del|b>*<b|r|0> + (<0|r|b>*<b|del|0>)*] (Au)
       state          X           Y           Z        Dip. S.   Osc.(frdel)
         1        -0.3321     -0.2190     -0.0000      0.5511      0.3674
         2        -0.0532     -0.0328     -0.0000      0.0860      0.0573
         3        -1.4021     -0.2698     -0.0000      1.6719      1.1146

 Excitation energies and oscillator strengths:
 
 Excited State   1:      Singlet-A      4.4637 eV  277.76 nm  f=0.3759  <S**2>=0.000
      31 -> 32         0.69400
 This state for optimization and/or second-order correction.
 Total Energy, E(TD-HF/TD-DFT) =  -363.564418014    
 Copying the excited state density for this state as the 1-particle RhoCI density.
 
 Excited State   2:      Singlet-A      4.9827 eV  248.83 nm  f=0.0584  <S**2>=0.000
      30 -> 32         0.59007
      31 -> 35        -0.35227
 
 Excited State   3:      Singlet-A      5.7928 eV  214.03 nm  f=1.1447  <S**2>=0.000
      30 -> 32         0.35655
      31 -> 35         0.58660
 SavETr:  write IOETrn=   770 NScale= 10 NData=  16 NLR=1 NState=    3 LETran=      64.
          IDoAtm=1111111111111111
 NEqPCM:  Using equilibrium solvation (IEInf=0, Eps=  78.3553, EpsInf=   1.7778)
          Differentiating once with respect to electric field.
                with respect to dipole field.
          Differentiating once with respect to nuclear coordinates.
          There are     1 degrees of freedom in the 1st order CPHF.  IDoFFX=0 NUNeed=     1.
 LinEq1:  Iter=  0 NonCon=     1 RMS=4.16D-03 Max=5.94D-02 NDo=     1
 AX will form     1 AO Fock derivatives at one time.
 LinEq1:  Iter=  1 NonCon=     1 RMS=2.14D-03 Max=6.31D-02 NDo=     1
 LinEq1:  Iter=  2 NonCon=     1 RMS=5.94D-04 Max=9.76D-03 NDo=     1
 LinEq1:  Iter=  3 NonCon=     1 RMS=3.57D-04 Max=1.20D-02 NDo=     1
 LinEq1:  Iter=  4 NonCon=     1 RMS=1.42D-04 Max=3.40D-03 NDo=     1
 LinEq1:  Iter=  5 NonCon=     1 RMS=5.77D-05 Max=9.65D-04 NDo=     1
 LinEq1:  Iter=  6 NonCon=     1 RMS=2.49D-05 Max=4.46D-04 NDo=     1
 LinEq1:  Iter=  7 NonCon=     1 RMS=8.45D-06 Max=1.21D-04 NDo=     1
 LinEq1:  Iter=  8 NonCon=     1 RMS=3.81D-06 Max=9.94D-05 NDo=     1
 LinEq1:  Iter=  9 NonCon=     1 RMS=1.45D-06 Max=3.39D-05 NDo=     1
 LinEq1:  Iter= 10 NonCon=     1 RMS=6.88D-07 Max=1.80D-05 NDo=     1
 LinEq1:  Iter= 11 NonCon=     1 RMS=2.48D-07 Max=5.63D-06 NDo=     1
 LinEq1:  Iter= 12 NonCon=     1 RMS=8.97D-08 Max=1.55D-06 NDo=     1
 LinEq1:  Iter= 13 NonCon=     1 RMS=3.91D-08 Max=6.78D-07 NDo=     1
 LinEq1:  Iter= 14 NonCon=     1 RMS=9.49D-09 Max=1.69D-07 NDo=     1
 LinEq1:  Iter= 15 NonCon=     1 RMS=4.54D-09 Max=9.28D-08 NDo=     1
 LinEq1:  Iter= 16 NonCon=     1 RMS=1.44D-09 Max=1.92D-08 NDo=     1
 LinEq1:  Iter= 17 NonCon=     1 RMS=3.69D-10 Max=7.00D-09 NDo=     1
 LinEq1:  Iter= 18 NonCon=     1 RMS=1.52D-10 Max=1.51D-09 NDo=     1
 LinEq1:  Iter= 19 NonCon=     0 RMS=5.16D-11 Max=8.34D-10 NDo=     1
 Linear equations converged to 1.000D-10 1.000D-09 after    19 iterations.
 End of Minotr F.D. properties file   721 does not exist.
 End of Minotr F.D. properties file   722 does not exist.
 End of Minotr F.D. properties file   788 does not exist.
 D1PCM: PCM CHGder 1st derivatives, ID1Alg=3 FixD1E=F DoIter=F DoCFld=F I1PDM=6.
 Calling FoFJK, ICntrl=  10005127 FMM=F ISym2X=0 I1Cent= 0 IOpClX= 0 NMat=1 NMatS=1 NMatT=0.
 ***** Axes restored to original set *****
 -------------------------------------------------------------------
 Center     Atomic                   Forces (Hartrees/Bohr)
 Number     Number              X              Y              Z
 -------------------------------------------------------------------
      1        6          -0.019248583   -0.001218815   -0.000001899
      2        6           0.016405054   -0.003000856    0.000002092
      3        6          -0.016605981   -0.007653511   -0.000001600
      4        6           0.007966494    0.013235643    0.000001725
      5        6          -0.002713527   -0.008802251   -0.000001199
      6        6           0.004956957    0.008324774    0.000000942
      7        6           0.019626794    0.011292801    0.000001631
      8        6          -0.000329600   -0.018120639    0.000001142
      9        1           0.001498735    0.000654051    0.000000071
     10        1          -0.001213732   -0.001694519   -0.000000213
     11        1          -0.000472026    0.001032093    0.000000082
     12        1          -0.000456639   -0.000845827    0.000000051
     13        1          -0.001177599    0.000250073   -0.000000606
     14        1           0.000616736    0.000917111    0.000000358
     15        1           0.000750674   -0.000589830   -0.000001246
     16        7          -0.009603758    0.006219702   -0.000001329
 -------------------------------------------------------------------
 Cartesian Forces:  Max     0.019626794 RMS     0.007051532

 GradGradGradGradGradGradGradGradGradGradGradGradGradGradGradGradGradGrad
 Berny optimization.
 Using GEDIIS/GDIIS optimizer.
 FormGI is forming the generalized inverse of G from B-inverse, IUseBI=4.
 Internal  Forces:  Max     0.012326018 RMS     0.002884077
 Search for a local minimum.
 Step number   2 out of a maximum of   94
 All quantities printed in internal units (Hartrees-Bohrs-Radians)
 Mixed Optimization -- RFO/linear search
 Update second derivatives using D2CorX and points    1    2
 DE= -1.28D-02 DEPred=-1.16D-02 R= 1.10D+00
 TightC=F SS=  1.41D+00  RLast= 2.18D-01 DXNew= 5.0454D-01 6.5473D-01
 Trust test= 1.10D+00 RLast= 2.18D-01 DXMaxT set to 5.05D-01
 ITU=  1  0
 Use linear search instead of GDIIS.
     Eigenvalues ---    0.01836   0.01922   0.02000   0.02016   0.02054
     Eigenvalues ---    0.02091   0.02127   0.02146   0.02150   0.02189
     Eigenvalues ---    0.02214   0.02228   0.02325   0.15953   0.16000
     Eigenvalues ---    0.16000   0.16000   0.16000   0.16000   0.16029
     Eigenvalues ---    0.21529   0.22007   0.23188   0.24142   0.24654
     Eigenvalues ---    0.34501   0.35729   0.35780   0.35790   0.35866
     Eigenvalues ---    0.36408   0.36459   0.37273   0.41287   0.43304
     Eigenvalues ---    0.43487   0.45854   0.46872   0.46961   0.47787
     Eigenvalues ---    0.49485   0.52490
 RFO step:  Lambda=-1.77487423D-03 EMin= 1.83591894D-02
 Quartic linear search produced a step of  0.19324.
 Iteration  1 RMS(Cart)=  0.00974511 RMS(Int)=  0.00005296
 Iteration  2 RMS(Cart)=  0.00008380 RMS(Int)=  0.00002015
 Iteration  3 RMS(Cart)=  0.00000000 RMS(Int)=  0.00002015
 Variable       Old X    -DE/DX   Delta X   Delta X   Delta X     New X
                                 (Linear)    (Quad)   (Total)
    R1        2.68162   0.00358  -0.00067   0.01058   0.00995   2.69157
    R2        2.71805   0.00414   0.01303   0.00319   0.01624   2.73429
    R3        2.66603  -0.01233  -0.00843  -0.03086  -0.03932   2.62671
    R4        2.62592  -0.00791  -0.00199  -0.01898  -0.02096   2.60496
    R5        2.62884   0.00318   0.00590   0.00375   0.00969   2.63853
    R6        2.74578   0.00842   0.02461   0.00559   0.03018   2.77596
    R7        2.05515  -0.00070   0.00209  -0.00362  -0.00153   2.05363
    R8        2.61612  -0.00456  -0.00829  -0.00740  -0.01572   2.60040
    R9        2.05491  -0.00018   0.00209  -0.00191   0.00019   2.05510
   R10        2.68706  -0.00004   0.01370  -0.00848   0.00521   2.69227
   R11        2.05521   0.00006   0.00209  -0.00109   0.00100   2.05621
   R12        2.05684  -0.00086   0.00221  -0.00422  -0.00201   2.05483
   R13        2.67472   0.01210   0.01740   0.01763   0.03500   2.70972
   R14        2.04605   0.00064   0.00216   0.00074   0.00290   2.04895
   R15        2.04403  -0.00071   0.00189  -0.00350  -0.00161   2.04242
   R16        2.56423  -0.00842  -0.00698  -0.01584  -0.02280   2.54142
   R17        1.91196   0.00033   0.00258  -0.00074   0.00184   1.91379
    A1        2.08320  -0.00063   0.00183  -0.00301  -0.00111   2.08208
    A2        1.85424   0.00362  -0.00175   0.01801   0.01622   1.87046
    A3        2.34574  -0.00298  -0.00008  -0.01500  -0.01510   2.33064
    A4        2.14143   0.00400   0.00162   0.01900   0.02062   2.16205
    A5        1.87276  -0.00212   0.00015  -0.01088  -0.01069   1.86208
    A6        2.26899  -0.00188  -0.00177  -0.00812  -0.00993   2.25906
    A7        2.04570  -0.00403  -0.00113  -0.02093  -0.02208   2.02363
    A8        2.11465   0.00353  -0.00048   0.02235   0.02189   2.13653
    A9        2.12284   0.00049   0.00161  -0.00142   0.00019   2.12303
   A10        2.11592   0.00150   0.00002   0.00733   0.00731   2.12323
   A11        2.08757  -0.00288   0.00078  -0.01993  -0.01912   2.06844
   A12        2.07970   0.00138  -0.00081   0.01260   0.01182   2.09152
   A13        2.11659   0.00251   0.00049   0.01293   0.01339   2.12999
   A14        2.07705  -0.00009  -0.00067   0.00240   0.00174   2.07880
   A15        2.08954  -0.00242   0.00018  -0.01534  -0.01514   2.07440
   A16        2.06353  -0.00335  -0.00283  -0.01532  -0.01813   2.04540
   A17        2.10743   0.00123   0.00094   0.00470   0.00563   2.11306
   A18        2.11223   0.00212   0.00189   0.01062   0.01250   2.12473
   A19        1.89776  -0.00244   0.00585  -0.01562  -0.00983   1.88793
   A20        2.20579   0.00227  -0.00260   0.01530   0.01273   2.21852
   A21        2.17964   0.00018  -0.00325   0.00032  -0.00290   2.17673
   A22        2.29592  -0.00139   0.00508  -0.01288  -0.00781   2.28812
   A23        1.86586   0.00106  -0.00931   0.01248   0.00317   1.86903
   A24        2.12140   0.00033   0.00423   0.00040   0.00464   2.12604
   A25        1.93415  -0.00012   0.00506  -0.00400   0.00112   1.93527
   A26        2.18403  -0.00080  -0.00170  -0.00487  -0.00660   2.17743
   A27        2.16501   0.00092  -0.00336   0.00887   0.00548   2.17049
    D1       -0.00001   0.00000  -0.00000   0.00000   0.00000  -0.00000
    D2       -3.14159   0.00000   0.00000   0.00001   0.00001  -3.14158
    D3        3.14158  -0.00000  -0.00001   0.00000  -0.00000   3.14158
    D4       -0.00000   0.00000  -0.00000   0.00001   0.00001   0.00000
    D5       -0.00001  -0.00000  -0.00000   0.00000   0.00000  -0.00001
    D6        3.14159   0.00000  -0.00000   0.00000   0.00000   3.14159
    D7        3.14159   0.00000   0.00000   0.00000   0.00001  -3.14159
    D8        0.00001   0.00000   0.00000   0.00000   0.00001   0.00001
    D9       -0.00001   0.00000   0.00002   0.00000   0.00002   0.00001
   D10        3.14158   0.00000   0.00000   0.00001   0.00001  -3.14159
   D11        3.14157   0.00000   0.00001   0.00000   0.00002   3.14159
   D12       -0.00002   0.00000  -0.00000   0.00001   0.00001  -0.00001
   D13        0.00002  -0.00000   0.00000  -0.00001  -0.00000   0.00002
   D14       -3.14159   0.00000   0.00000   0.00000   0.00000  -3.14159
   D15       -3.14158  -0.00000   0.00000  -0.00001  -0.00001   3.14159
   D16       -0.00001  -0.00000  -0.00000  -0.00000  -0.00001  -0.00002
   D17        0.00002  -0.00000  -0.00001  -0.00002  -0.00003  -0.00002
   D18       -3.14154  -0.00000  -0.00000  -0.00003  -0.00003  -3.14157
   D19       -3.14157  -0.00000  -0.00001  -0.00001  -0.00002  -3.14159
   D20        0.00006  -0.00000  -0.00000  -0.00002  -0.00002   0.00004
   D21       -0.00002  -0.00000  -0.00000   0.00000   0.00000  -0.00002
   D22        3.14158   0.00000  -0.00000   0.00000   0.00000   3.14158
   D23       -3.14159  -0.00000  -0.00000  -0.00001  -0.00001   3.14159
   D24        0.00000  -0.00000   0.00000  -0.00001  -0.00001  -0.00000
   D25        0.00000   0.00000   0.00000   0.00000   0.00000   0.00000
   D26       -3.14159  -0.00000   0.00000  -0.00000  -0.00000  -3.14159
   D27        3.14159   0.00000  -0.00000   0.00000   0.00000  -3.14159
[...]
 ! D8    D(7,1,6,12)             0.0004         -DE/DX =    0.0                 !
 ! D9    D(2,1,7,8)             -0.0005         -DE/DX =    0.0                 !
 ! D10   D(2,1,7,13)          -179.9999         -DE/DX =    0.0                 !
 ! D11   D(6,1,7,8)           -180.0006         -DE/DX =    0.0                 !
 ! D12   D(6,1,7,13)            -0.0001         -DE/DX =    0.0                 !
 ! D13   D(1,2,3,4)             -0.0002         -DE/DX =    0.0                 !
 ! D14   D(1,2,3,9)           -179.9998         -DE/DX =    0.0                 !
 ! D15   D(16,2,3,4)          -180.0003         -DE/DX =    0.0                 !
 ! D16   D(16,2,3,9)             0.0            -DE/DX =    0.0                 !
 ! D17   D(1,2,16,8)             0.0003         -DE/DX =    0.0                 !
 ! D18   D(1,2,16,15)         -179.9999         -DE/DX =    0.0                 !
 ! D19   D(3,2,16,8)           180.0005         -DE/DX =    0.0                 !
 ! D20   D(3,2,16,15)            0.0003         -DE/DX =    0.0                 !
 ! D21   D(2,3,4,5)              0.0001         -DE/DX =    0.0                 !
 ! D22   D(2,3,4,10)           180.0001         -DE/DX =    0.0                 !
 ! D23   D(9,3,4,5)            179.9998         -DE/DX =    0.0                 !
 ! D24   D(9,3,4,10)            -0.0003         -DE/DX =    0.0                 !
 ! D25   D(3,4,5,6)              0.0            -DE/DX =    0.0                 !
 ! D26   D(3,4,5,11)          -180.0001         -DE/DX =    0.0                 !
 ! D27   D(10,4,5,6)           180.0001         -DE/DX =    0.0                 !
 ! D28   D(10,4,5,11)            0.0            -DE/DX =    0.0                 !
 ! D29   D(4,5,6,1)             -0.0001         -DE/DX =    0.0                 !
 ! D30   D(4,5,6,12)           179.9997         -DE/DX =    0.0                 !
 ! D31   D(11,5,6,1)           180.0            -DE/DX =    0.0                 !
 ! D32   D(11,5,6,12)           -0.0002         -DE/DX =    0.0                 !
 ! D33   D(1,7,8,14)           180.0002         -DE/DX =    0.0                 !
 ! D34   D(1,7,8,16)             0.0007         -DE/DX =    0.0                 !
 ! D35   D(13,7,8,14)           -0.0003         -DE/DX =    0.0                 !
 ! D36   D(13,7,8,16)          180.0001         -DE/DX =    0.0                 !
 ! D37   D(7,8,16,2)            -0.0006         -DE/DX =    0.0                 !
 ! D38   D(7,8,16,15)         -180.0004         -DE/DX =    0.0                 !
 ! D39   D(14,8,16,2)         -180.0002         -DE/DX =    0.0                 !
 ! D40   D(14,8,16,15)           0.0            -DE/DX =    0.0                 !
 --------------------------------------------------------------------------------
 GradGradGradGradGradGradGradGradGradGradGradGradGradGradGradGradGradGrad

                          Input orientation:                          
 ---------------------------------------------------------------------
 Center     Atomic      Atomic             Coordinates (Angstroms)
 Number     Number       Type             X           Y           Z
 ---------------------------------------------------------------------
      1          6           0       -0.260757    0.754470    0.000016
      2          6           0       -0.252417   -0.671861   -0.000059
      3          6           0        0.892585   -1.436536    0.000025
      4          6           0        2.157685   -0.691653    0.000199
      5          6           0        2.185320    0.689101    0.000274
      6          6           0        1.002123    1.467416    0.000189
      7          6           0       -1.589653    1.162323   -0.000108
      8          6           0       -2.417326   -0.012736   -0.000272
      9          1           0        0.877147   -2.521848   -0.000037
     10          1           0        3.088037   -1.254400    0.000270
     11          1           0        3.148187    1.196564    0.000405
     12          1           0        1.029951    2.553595    0.000254
     13          1           0       -1.969771    2.176667   -0.000097
     14          1           0       -3.493371   -0.116414   -0.000402
     15          1           0       -1.902745   -2.039302   -0.000314
     16          7           0       -1.594818   -1.075215   -0.000230
 ---------------------------------------------------------------------
                    Distance matrix (angstroms):
                    1          2          3          4          5
     1  C    0.000000
     2  C    1.426355   0.000000
     3  C    2.476026   1.376865   0.000000
     4  C    2.817824   2.410183   1.468104   0.000000
     5  C    2.446950   2.791913   2.487870   1.381030   0.000000
     6  C    1.450227   2.479996   2.906018   2.448857   1.416238
     7  C    1.390075   2.269897   3.593825   4.180881   3.804519
     8  C    2.288972   2.263024   3.603154   4.625110   4.655848
     9  H    3.468297   2.167571   1.085421   2.233695   3.467205
    10  H    3.905122   3.390868   2.202994   1.087309   2.142918
    11  H    3.437492   3.880093   3.467125   2.132242   1.088408
    12  H    2.214223   3.471029   3.992496   3.435610   2.193448
    13  H    2.223370   3.326172   4.609590   5.026246   4.413347
    14  H    3.347870   3.288207   4.580321   5.680258   5.735538
    15  H    3.240568   2.143240   2.859580   4.278230   4.914922
    16  N    2.264391   1.401690   2.513509   3.772054   4.171601
                    6          7          8          9         10
     6  C    0.000000
     7  C    2.609671   0.000000
     8  C    3.726054   1.437290   0.000000
     9  H    3.991221   4.433759   4.141158   0.000000
    10  H    3.429187   5.265106   5.643647   2.548423   0.000000
    11  H    2.163089   4.737964   5.695379   4.357088   2.451702
    12  H    1.086536   2.966137   4.297647   5.077743   4.328573
    13  H    3.055354   1.083228   2.234678   5.493722   6.111763
    14  H    4.766339   2.293319   1.081029   4.988741   6.679068
    15  H    4.553606   3.216897   2.090876   2.821463   5.052126
    16  N    3.634429   2.237544   1.343645   2.864150   4.686282
                   11         12         13         14         15
    11  H    0.000000
    12  H    2.515642   0.000000
    13  H    5.210960   3.023311   0.000000
    14  H    6.770097   5.252561   2.753103   0.000000
    15  H    5.998562   5.449350   4.216501   2.495513   0.000000
    16  N    5.259000   4.478580   3.273428   2.126924   1.012068
                   16
    16  N    0.000000
 Stoichiometry    C8H7N
 Framework group  C1[X(C8H7N)]
 Deg. of freedom    42
 Full point group                 C1      NOp   1
 Largest Abelian subgroup         C1      NOp   1
 Largest concise Abelian subgroup C1      NOp   1
                         Standard orientation:                         
 ---------------------------------------------------------------------
 Center     Atomic      Atomic             Coordinates (Angstroms)
 Number     Number       Type             X           Y           Z
 ---------------------------------------------------------------------
      1          6           0       -0.240656    0.760170    0.000015
      2          6           0       -0.267724   -0.665929   -0.000060
      3          6           0        0.857943   -1.458791    0.000024
      4          6           0        2.141143   -0.745540    0.000198
      5          6           0        2.203044    0.634102    0.000273
      6          6           0        1.039532    1.441548    0.000188
      7          6           0       -1.559019    1.200884   -0.000109
      8          6           0       -2.415604    0.046733   -0.000273
      9          1           0        0.815569   -2.543385   -0.000038
     10          1           0        3.057240   -1.331208    0.000269
     11          1           0        3.178212    1.117508    0.000404
     12          1           0        1.094314    2.526702    0.000253
     13          1           0       -1.913840    2.224352   -0.000098
     14          1           0       -3.493892   -0.030203   -0.000403
     15          1           0       -1.951488   -1.991981   -0.000315
     16          7           0       -1.619724   -1.035836   -0.000231
 ---------------------------------------------------------------------
 Rotational constants (GHZ):           3.8412785           1.6103084           1.1346500

 **********************************************************************

            Population analysis using the CI Density.

 **********************************************************************

 Orbital symmetries:
       Occupied  (A) (A) (A) (A) (A) (A) (A) (A) (A) (A) (A) (A)
                 (A) (A) (A) (A) (A) (A) (A) (A) (A) (A) (A) (A)
                 (A) (A) (A) (A) (A) (A) (A)
       Virtual   (A) (A) (A) (A) (A) (A) (A) (A) (A) (A) (A) (A)
                 (A) (A) (A) (A) (A) (A) (A) (A) (A) (A) (A) (A)
                 (A) (A) (A) (A) (A) (A) (A) (A) (A) (A) (A) (A)
                 (A) (A) (A) (A) (A) (A) (A) (A) (A) (A) (A) (A)
                 (A) (A) (A) (A) (A) (A) (A) (A) (A) (A) (A) (A)
                 (A) (A) (A) (A) (A) (A) (A) (A) (A) (A) (A) (A)
                 (A) (A) (A) (A) (A) (A) (A) (A) (A) (A) (A) (A)
                 (A) (A) (A) (A) (A) (A) (A) (A) (A) (A) (A) (A)
                 (A) (A) (A) (A) (A) (A) (A) (A) (A) (A) (A) (A)
                 (A) (A) (A) (A) (A) (A) (A) (A) (A) (A) (A) (A)
                 (A) (A) (A) (A) (A) (A) (A) (A) (A) (A) (A) (A)
                 (A) (A) (A) (A) (A) (A) (A) (A) (A) (A) (A) (A)
                 (A) (A) (A) (A) (A) (A) (A) (A) (A) (A)
 The electronic state is 1-A.
 Alpha  occ. eigenvalues --  -14.46772 -10.31942 -10.31313 -10.29052 -10.28600
 Alpha  occ. eigenvalues --  -10.28318 -10.28243 -10.27821 -10.26542  -1.12163
 Alpha  occ. eigenvalues --   -0.97493  -0.91424  -0.87757  -0.83762  -0.75403
 Alpha  occ. eigenvalues --   -0.72060  -0.70158  -0.65806  -0.60043  -0.58794
 Alpha  occ. eigenvalues --   -0.55190  -0.54659  -0.54416  -0.51431  -0.49997
 Alpha  occ. eigenvalues --   -0.45697  -0.45147  -0.44912  -0.38408  -0.33080
 Alpha  occ. eigenvalues --   -0.28299
 Alpha virt. eigenvalues --    0.03802   0.07671   0.08818   0.09121   0.09159
 Alpha virt. eigenvalues --    0.10509   0.10951   0.11160   0.11668   0.12490
 Alpha virt. eigenvalues --    0.13414   0.13803   0.14458   0.15306   0.16509
 Alpha virt. eigenvalues --    0.17101   0.17895   0.18826   0.19806   0.20332
 Alpha virt. eigenvalues --    0.21711   0.22373   0.23508   0.23892   0.24306
 Alpha virt. eigenvalues --    0.24916   0.25087   0.25440   0.26486   0.27212
 Alpha virt. eigenvalues --    0.27577   0.28469   0.28837   0.29531   0.30303
 Alpha virt. eigenvalues --    0.30388   0.30457   0.31312   0.32128   0.33241
 Alpha virt. eigenvalues --    0.33716   0.34311   0.36074   0.36920   0.37991
 Alpha virt. eigenvalues --    0.39205   0.39657   0.41317   0.43382   0.44570
 Alpha virt. eigenvalues --    0.46805   0.48178   0.52219   0.54781   0.61344
 Alpha virt. eigenvalues --    0.67379   0.70525   0.76700   0.76764   0.79666
 Alpha virt. eigenvalues --    0.81288   0.81824   0.82839   0.82902   0.84352
 Alpha virt. eigenvalues --    0.85081   0.86866   0.87120   0.88761   0.89158
 Alpha virt. eigenvalues --    0.91346   0.94799   0.99439   1.00270   1.01858
 Alpha virt. eigenvalues --    1.05075   1.05287   1.06070   1.06748   1.09445
 Alpha virt. eigenvalues --    1.10402   1.13397   1.15136   1.17641   1.19068
 Alpha virt. eigenvalues --    1.20825   1.22434   1.27459   1.27675   1.30865
 Alpha virt. eigenvalues --    1.32702   1.33710   1.34608   1.42192   1.42478
 Alpha virt. eigenvalues --    1.44693   1.46005   1.50748   1.50967   1.54060
 Alpha virt. eigenvalues --    1.56962   1.57197   1.59349   1.60044   1.64357
 Alpha virt. eigenvalues --    1.68785   1.73943   1.87688   1.90486   1.98740
 Alpha virt. eigenvalues --    1.99843   2.00956   2.04282   2.09362   2.10218
 Alpha virt. eigenvalues --    2.10347   2.13186   2.16460   2.22157   2.24711
 Alpha virt. eigenvalues --    2.26007   2.29355   2.31854   2.34013   2.37784
 Alpha virt. eigenvalues --    2.38048   2.41132   2.46544   2.51075   2.55795
 Alpha virt. eigenvalues --    2.62699   2.65661   2.71401   2.73860   2.75299
 Alpha virt. eigenvalues --    2.76871   2.82642   2.89651   2.93436   2.94716
 Alpha virt. eigenvalues --    3.05082   3.07441   3.19417   3.34061   3.49546
 Alpha virt. eigenvalues --    4.26666   4.35427   4.39113   4.42622   4.47289
 Alpha virt. eigenvalues --    4.52164   4.59114   4.62915   4.88385
          Condensed to atoms (all electrons):
               1          2          3          4          5          6
     1  C   13.129717  -2.407413  -3.332757  -0.329525  -0.010266  -0.080531
     2  C   -2.407413  11.051571  -1.872468   0.386868  -0.555536  -0.786365
     3  C   -3.332757  -1.872468  12.382241  -0.477375   0.493503  -2.311185
     4  C   -0.329525   0.386868  -0.477375   5.848044   0.376338   0.515448
     5  C   -0.010266  -0.555536   0.493503   0.376338   5.537694  -0.234400
     6  C   -0.080531  -0.786365  -2.311185   0.515448  -0.234400  11.375340
     7  C   -4.157223   1.425650   2.728825  -0.310419   0.234894  -2.930721
     8  C    1.445129  -0.548034  -0.930677   0.042745  -0.086278   0.788776
     9  H    0.006192  -0.051217   0.390031  -0.034257   0.022362  -0.020419
    10  H   -0.002714   0.027442  -0.049693   0.363901  -0.043067   0.021470
    11  H    0.021478  -0.009606   0.012250  -0.021698   0.344476  -0.030262
    12  H   -0.012813   0.056364  -0.040941   0.025513  -0.069670   0.410228
    13  H   -0.017244   0.023407   0.002021   0.000634   0.000740  -0.008744
    14  H   -0.034759   0.036126   0.014399  -0.000425   0.000814  -0.011206
    15  H    0.121985  -0.055179  -0.096705  -0.002351  -0.002855   0.017477
    16  N    0.787129  -0.087380  -0.562389   0.014721  -0.007390   0.086865
               7          8          9         10         11         12
     1  C   -4.157223   1.445129   0.006192  -0.002714   0.021478  -0.012813
     2  C    1.425650  -0.548034  -0.051217   0.027442  -0.009606   0.056364
     3  C    2.728825  -0.930677   0.390031  -0.049693   0.012250  -0.040941
     4  C   -0.310419   0.042745  -0.034257   0.363901  -0.021698   0.025513
     5  C    0.234894  -0.086278   0.022362  -0.043067   0.344476  -0.069670
     6  C   -2.930721   0.788776  -0.020419   0.021470  -0.030262   0.410228
     7  C   10.625674  -1.448422  -0.002070  -0.002008  -0.002646  -0.064513
     8  C   -1.448422   6.229311   0.004050   0.001099   0.000456   0.004569
     9  H   -0.002070   0.004050   0.458478  -0.002016  -0.000092   0.000009
    10  H   -0.002008   0.001099  -0.002016   0.475430  -0.003184  -0.000106
    11  H   -0.002646   0.000456  -0.000092  -0.003184   0.481709  -0.002344
    12  H   -0.064513   0.004569   0.000009  -0.000106  -0.002344   0.472615
    13  H    0.344694  -0.035671   0.000001   0.000000  -0.000001   0.001036
    14  H   -0.003048   0.366235   0.000002  -0.000000  -0.000000  -0.000001
    15  H   -0.018723  -0.001880   0.001319  -0.000001  -0.000000   0.000002
    16  N   -0.643859   0.514089  -0.002492  -0.000193   0.000171  -0.000589
              13         14         15         16
     1  C   -0.017244  -0.034759   0.121985   0.787129
     2  C    0.023407   0.036126  -0.055179  -0.087380
     3  C    0.002021   0.014399  -0.096705  -0.562389
     4  C    0.000634  -0.000425  -0.002351   0.014721
     5  C    0.000740   0.000814  -0.002855  -0.007390
     6  C   -0.008744  -0.011206   0.017477   0.086865
     7  C    0.344694  -0.003048  -0.018723  -0.643859
     8  C   -0.035671   0.366235  -0.001880   0.514089
     9  H    0.000001   0.000002   0.001319  -0.002492
    10  H    0.000000  -0.000000  -0.000001  -0.000193
    11  H   -0.000001  -0.000000  -0.000000   0.000171
    12  H    0.001036  -0.000001   0.000002  -0.000589
    13  H    0.426236  -0.000258  -0.000050   0.006815
    14  H   -0.000258   0.405067  -0.001306  -0.042580
    15  H   -0.000050  -0.001306   0.267761   0.281675
    16  N    0.006815  -0.042580   0.281675   7.112681
 Mulliken charges:
               1
     1  C    0.873615
     2  C   -0.634229
     3  C   -0.349080
     4  C   -0.398163
     5  C   -0.001359
     6  C   -0.801772
     7  C    0.223915
     8  C   -0.345497
     9  H    0.230117
    10  H    0.213638
    11  H    0.209293
    12  H    0.220641
    13  H    0.256384
    14  H    0.270941
    15  H    0.488831
    16  N   -0.457274
 Sum of Mulliken charges =  -0.00000
 Mulliken charges with hydrogens summed into heavy atoms:
               1
     1  C    0.873615
     2  C   -0.634229
     3  C   -0.118963
     4  C   -0.184525
     5  C    0.207934
     6  C   -0.581131
     7  C    0.480298
     8  C   -0.074556
    16  N    0.031557
 Electronic spatial extent (au):  <R**2>=           1022.6873
 Charge=             -0.0000 electrons
 Dipole moment (field-independent basis, Debye):
    X=             -5.0989    Y=             -2.2071    Z=             -0.0007  Tot=              5.5561
 Quadrupole moment (field-independent basis, Debye-Ang):
   XX=            -42.9309   YY=            -45.1211   ZZ=            -61.0862
   XY=              2.6797   XZ=              0.0022   YZ=              0.0011
 Traceless Quadrupole moment (field-independent basis, Debye-Ang):
   XX=              6.7818   YY=              4.5917   ZZ=            -11.3734
   XY=              2.6797   XZ=              0.0022   YZ=              0.0011
 Octapole moment (field-independent basis, Debye-Ang**2):
  XXX=            -36.3124  YYY=            -14.1874  ZZZ=             -0.0023  XYY=            -16.5028
  XXY=             -9.3776  XXZ=             -0.0033  XZZ=             -5.8787  YZZ=             -2.9640
  YYZ=             -0.0022  XYZ=             -0.0012
 Hexadecapole moment (field-independent basis, Debye-Ang**3):
 XXXX=           -813.9937 YYYY=           -383.2831 ZZZZ=            -87.5546 XXXY=             22.1780
 XXXZ=             -0.0217 YYYX=             14.7358 YYYZ=             -0.0017 ZZZX=             -0.0576
 ZZZY=             -0.0106 XXYY=           -193.2943 XXZZ=           -202.2314 YYZZ=           -104.2574
 XXYZ=              0.0025 YYXZ=             -0.0094 ZZXY=              1.9407
 N-N= 3.976380456571D+02 E-N=-1.637307828157D+03  KE= 3.600788417058D+02
 1\1\GINC-COMET-08-40\FOpt\RwB97X TD-FC\6-31+G(d)\C8H7N1\WENQINHE\18-Ju
 n-2018\0\\# opt td=(root=1) wb97x/6-31+g(d) scrf=(solvent=water) geom=
 connectivity density=current\\Title Card Required\\0,1\C,-0.2607572911
 ,0.7544696595,0.000016008\C,-0.2524168398,-0.6718614216,-0.0000588969\
 C,0.8925852814,-1.4365364085,0.0000253525\C,2.1576845962,-0.6916525981
 ,0.0001992852\C,2.1853198627,0.6891012441,0.0002744155\C,1.0021226235,
 1.467416191,0.0001892713\C,-1.5896533963,1.1623228429,-0.0001078544\C,
 -2.4173255585,-0.012735669,-0.0002724261\H,0.877146876,-2.521847881,-0
 .0000366468\H,3.0880371542,-1.2544000255,0.0002698371\H,3.1481871113,1
 .1965641784,0.0004050881\H,1.0299513096,2.5535954832,0.0002543469\H,-1
 .9697713106,2.1766667372,-0.0000970547\H,-3.4933714608,-0.1164142978,-
 0.0004024731\H,-1.9027454444,-2.0393015428,-0.0003140439\N,-1.59481751
 35,-1.075215492,-0.0002302089\\Version=ES64L-G16RevB.01\State=1-A\HF=-
 363.7232561\RMSD=7.799e-09\RMSF=7.447e-05\Dipole=-2.0060807,-0.8683243
 ,-0.0002653\Quadrupole=5.0420974,3.4137812,-8.4558786,1.9922886,0.0016
 053,0.0008429\PG=C01 [X(C8H7N1)]\\@


 Other things may change us, but we start and end with family.
 -- Anthony Brandt
 Job cpu time:       0 days  2 hours 41 minutes  8.4 seconds.
 Elapsed time:       0 days  0 hours 40 minutes 23.4 seconds.
 File lengths (MBytes):  RWF=    242 Int=      0 D2E=      0 Chk=     10 Scr=      1
 Normal termination of Gaussian 16 at Mon Jun 18 14:38:07 2018.
