 Entering Gaussian System, Link 0=/opt/gaussian/16.B.01/g16/g16
 Initial command:
 /opt/gaussian/16.B.01/g16/l1.exe "/scratch/gfoley1/17019645/Gau-22554.inp" -scrdir="/scratch/gfoley1/17019645/"
 Entering Link 1 = /opt/gaussian/16.B.01/g16/l1.exe PID=     22601.
  
 Copyright (c) 1988-2017, Gaussian, Inc.  All Rights Reserved.
  
 This is part of the Gaussian(R) 16 program.  It is based on
 the Gaussian(R) 09 system (copyright 2009, Gaussian, Inc.),
 the Gaussian(R) 03 system (copyright 2003, Gaussian, Inc.),
 the Gaussian(R) 98 system (copyright 1998, Gaussian, Inc.),
 the Gaussian(R) 94 system (copyright 1995, Gaussian, Inc.),
 the Gaussian 92(TM) system (copyright 1992, Gaussian, Inc.),
 the Gaussian 90(TM) system (copyright 1990, Gaussian, Inc.),
 the Gaussian 88(TM) system (copyright 1988, Gaussian, Inc.),
 the Gaussian 86(TM) system (copyright 1986, Carnegie Mellon
 University), and the Gaussian 82(TM) system (copyright 1983,
 Carnegie Mellon University). Gaussian is a federally registered
 trademark of Gaussian, Inc.
  
 This software contains proprietary and confidential information,
 including trade secrets, belonging to Gaussian, Inc.
  
 This software is provided under written license and may be
 used, copied, transmitted, or stored only in accord with that
 written license.
  
 The following legend is applicable only to US Government
 contracts under FAR:
  
                    RESTRICTED RIGHTS LEGEND
  
 Use, reproduction and disclosure by the US Government is
 subject to restrictions as set forth in subparagraphs (a)
 and (c) of the Commercial Computer Software - Restricted
 Rights clause in FAR 52.227-19.
  
 Gaussian, Inc.
 340 Quinnipiac St., Bldg. 40, Wallingford CT 06492
  
  
 ---------------------------------------------------------------
 Warning -- This program may not be used in any manner that
 competes with the business of Gaussian, Inc. or will provide
 assistance to any competitor of Gaussian, Inc.  The licensee
 of this program is prohibited from giving any competitor of
 Gaussian, Inc. access to this program.  By using this program,
 the user acknowledges that Gaussian, Inc. is engaged in the
 business of creating and licensing software in the field of
 computational chemistry and represents and warrants to the
 licensee that it is not a competitor of Gaussian, Inc. and that
 it will not use this program in any manner prohibited above.
 ---------------------------------------------------------------
  

 Cite this work as:
 Gaussian 16, Revision B.01,
 M. J. Frisch, G. W. Trucks, H. B. Schlegel, G. E. Scuseria, 
 M. A. Robb, J. R. Cheeseman, G. Scalmani, V. Barone, 
 G. A. Petersson, H. Nakatsuji, X. Li, M. Caricato, A. V. Marenich, 
 J. Bloino, B. G. Janesko, R. Gomperts, B. Mennucci, H. P. Hratchian, 
 J. V. Ortiz, A. F. Izmaylov, J. L. Sonnenberg, D. Williams-Young, 
 F. Ding, F. Lipparini, F. Egidi, J. Goings, B. Peng, A. Petrone, 
 T. Henderson, D. Ranasinghe, V. G. Zakrzewski, J. Gao, N. Rega, 
 G. Zheng, W. Liang, M. Hada, M. Ehara, K. Toyota, R. Fukuda, 
 J. Hasegawa, M. Ishida, T. Nakajima, Y. Honda, O. Kitao, H. Nakai, 
 T. Vreven, K. Throssell, J. A. Montgomery, Jr., J. E. Peralta, 
 F. Ogliaro, M. J. Bearpark, J. J. Heyd, E. N. Brothers, K. N. Kudin, 
 V. N. Staroverov, T. A. Keith, R. Kobayashi, J. Normand, 
 K. Raghavachari, A. P. Rendell, J. C. Burant, S. S. Iyengar, 
 J. Tomasi, M. Cossi, J. M. Millam, M. Klene, C. Adamo, R. Cammi, 
 J. W. Ochterski, R. L. Martin, K. Morokuma, O. Farkas, 
 J. B. Foresman, and D. J. Fox, Gaussian, Inc., Wallingford CT, 2016.
 
 ******************************************
 Gaussian 16:  ES64L-G16RevB.01 20-Dec-2017
                15-Jun-2018 
 ******************************************
 %nprocshared=4
 Will use up to    4 processors via shared memory.
 -----------------------------------
 # opt td=(root=1) LC-BLYP/6-31+g(d)
 -----------------------------------
 1/18=20,19=15,26=3,38=1/1,3;
 2/9=110,12=2,17=6,18=5,40=1/2;
 3/5=1,6=6,7=11,11=9,25=1,30=1,71=1,74=1000402/1,2,3,8;
 4//1;
 5/5=2,38=5/2;
 8/6=1,10=2,107=1/1;
 9/8=1,15=2,42=1,70=2/14;
 10/5=4,28=1/2;
 6/7=2,8=2,9=2,10=2/1;
 7/12=6,13=5,14=1/1,2,3,16;
 1/18=20,19=15,26=3/3(2);
 2/9=110/2;
 99//99;
 2/9=110/2;
 3/5=1,6=6,7=11,11=9,25=1,30=1,71=1,74=1000402/1,2,3,8;
 4/5=5,16=3,69=1/1;
 5/5=2,38=5/2;
 8/6=1,10=2,107=1/1;
 9/8=1,15=2,42=1,49=4,70=2/14;
 10/5=4,28=1/2;
 7/12=6,13=5,14=1/1,2,3,16;
 1/18=20,19=15,26=3/3(-8);
 2/9=110/2;
 6/7=2,8=2,9=2,10=2/1;
 99/9=10/99;
 --------------------------------
 IndoleFixedOptimization1WaterMol
 --------------------------------
 Symbolic Z-matrix:
 Charge =  0 Multiplicity = 1
 C                     2.38236   0.03088   0. 
 H                     3.45291  -0.08191   0. 
 C                     1.62023   1.16307   0. 
 H                     1.99365   2.17268   0. 
 C                     0.24793   0.74811   0. 
 C                    -0.97967   1.42388   0. 
 C                    -2.15137   0.68945   0. 
 C                    -2.12818  -0.71613   0. 
 C                    -0.93226  -1.41335   0. 
 C                     0.24663  -0.67002   0. 
 H                    -1.00927   2.50561   0. 
 H                    -3.10448   1.20063   0. 
 H                    -3.06168  -1.26218   0. 
 H                    -0.91738  -2.49543   0. 
 N                     1.56222  -1.0778    0. 
 H                     1.8767   -2.03017   0. 
 O                     2.44376  -3.79293  -0.00179 
 H                     2.63166  -4.36754  -0.76316 
 H                     2.63407  -4.36925   0.75769 
 
 Add virtual bond connecting atoms O17        and H16        Dist= 3.50D+00.

 GradGradGradGradGradGradGradGradGradGradGradGradGradGradGradGradGradGrad
 Berny optimization.
 Initialization pass.
                           ----------------------------
                           !    Initial Parameters    !
                           ! (Angstroms and Degrees)  !
 --------------------------                            --------------------------
 ! Name  Definition              Value          Derivative Info.                !
 --------------------------------------------------------------------------------
 ! R1    R(1,2)                  1.0765         estimate D2E/DX2                !
 ! R2    R(1,3)                  1.3648         estimate D2E/DX2                !
 ! R3    R(1,15)                 1.3791         estimate D2E/DX2                !
 ! R4    R(3,4)                  1.0765         estimate D2E/DX2                !
 ! R5    R(3,5)                  1.4337         estimate D2E/DX2                !
 ! R6    R(5,6)                  1.4013         estimate D2E/DX2                !
 ! R7    R(5,10)                 1.4181         estimate D2E/DX2                !
 ! R8    R(6,7)                  1.3828         estimate D2E/DX2                !
 ! R9    R(6,11)                 1.0821         estimate D2E/DX2                !
 ! R10   R(7,8)                  1.4058         estimate D2E/DX2                !
 ! R11   R(7,12)                 1.0815         estimate D2E/DX2                !
 ! R12   R(8,9)                  1.3843         estimate D2E/DX2                !
 ! R13   R(8,13)                 1.0815         estimate D2E/DX2                !
 ! R14   R(9,10)                 1.3937         estimate D2E/DX2                !
 ! R15   R(9,14)                 1.0822         estimate D2E/DX2                !
 ! R16   R(10,15)                1.3773         estimate D2E/DX2                !
 ! R17   R(15,16)                1.0029         estimate D2E/DX2                !
 ! R18   R(16,17)                1.8517         estimate D2E/DX2                !
 ! R19   R(17,18)                0.9722         estimate D2E/DX2                !
 ! R20   R(17,19)                0.9722         estimate D2E/DX2                !
 ! A1    A(2,1,3)              129.9607         estimate D2E/DX2                !
 ! A2    A(2,1,15)             120.4777         estimate D2E/DX2                !
 ! A3    A(3,1,15)             109.5617         estimate D2E/DX2                !
 ! A4    A(1,3,4)              125.756          estimate D2E/DX2                !
 ! A5    A(1,3,5)              107.1219         estimate D2E/DX2                !
 ! A6    A(4,3,5)              127.1221         estimate D2E/DX2                !
 ! A7    A(3,5,6)              134.3437         estimate D2E/DX2                !
 ! A8    A(3,5,10)             106.8769         estimate D2E/DX2                !
 ! A9    A(6,5,10)             118.7794         estimate D2E/DX2                !
 ! A10   A(5,6,7)              119.0883         estimate D2E/DX2                !
 ! A11   A(5,6,11)             120.3994         estimate D2E/DX2                !
 ! A12   A(7,6,11)             120.5124         estimate D2E/DX2                !
 ! A13   A(6,7,8)              121.1346         estimate D2E/DX2                !
 ! A14   A(6,7,12)             119.7143         estimate D2E/DX2                !
 ! A15   A(8,7,12)             119.1511         estimate D2E/DX2                !
 ! A16   A(7,8,9)              121.1873         estimate D2E/DX2                !
 ! A17   A(7,8,13)             119.3803         estimate D2E/DX2                !
 ! A18   A(9,8,13)             119.4324         estimate D2E/DX2                !
 ! A19   A(8,9,10)             117.525          estimate D2E/DX2                !
 ! A20   A(8,9,14)             121.03           estimate D2E/DX2                !
 ! A21   A(10,9,14)            121.445          estimate D2E/DX2                !
 ! A22   A(5,10,9)             122.2853         estimate D2E/DX2                !
 ! A23   A(5,10,15)            107.1688         estimate D2E/DX2                !
 ! A24   A(9,10,15)            130.5458         estimate D2E/DX2                !
 ! A25   A(1,15,10)            109.2706         estimate D2E/DX2                !
 ! A26   A(1,15,16)            125.2344         estimate D2E/DX2                !
 ! A27   A(10,15,16)           125.495          estimate D2E/DX2                !
 ! A28   A(16,17,18)           128.5056         estimate D2E/DX2                !
 ! A29   A(16,17,19)           128.5729         estimate D2E/DX2                !
 ! A30   A(18,17,19)           102.9197         estimate D2E/DX2                !
 ! A31   L(15,16,17,14,-1)     179.5588         estimate D2E/DX2                !
 ! A32   L(15,16,17,14,-2)     179.944          estimate D2E/DX2                !
 ! D1    D(2,1,3,4)              0.0            estimate D2E/DX2                !
 ! D2    D(2,1,3,5)            180.0            estimate D2E/DX2                !
 ! D3    D(15,1,3,4)           180.0            estimate D2E/DX2                !
 ! D4    D(15,1,3,5)             0.0            estimate D2E/DX2                !
 ! D5    D(2,1,15,10)          180.0            estimate D2E/DX2                !
 ! D6    D(2,1,15,16)            0.0            estimate D2E/DX2                !
 ! D7    D(3,1,15,10)            0.0            estimate D2E/DX2                !
 ! D8    D(3,1,15,16)          180.0            estimate D2E/DX2                !
 ! D9    D(1,3,5,6)            180.0            estimate D2E/DX2                !
 ! D10   D(1,3,5,10)             0.0            estimate D2E/DX2                !
 ! D11   D(4,3,5,6)              0.0            estimate D2E/DX2                !
 ! D12   D(4,3,5,10)           180.0            estimate D2E/DX2                !
 ! D13   D(3,5,6,7)            180.0            estimate D2E/DX2                !
 ! D14   D(3,5,6,11)             0.0            estimate D2E/DX2                !
 ! D15   D(10,5,6,7)             0.0            estimate D2E/DX2                !
 ! D16   D(10,5,6,11)          180.0            estimate D2E/DX2                !
 ! D17   D(3,5,10,9)           180.0            estimate D2E/DX2                !
 ! D18   D(3,5,10,15)            0.0            estimate D2E/DX2                !
 ! D19   D(6,5,10,9)             0.0            estimate D2E/DX2                !
 ! D20   D(6,5,10,15)          180.0            estimate D2E/DX2                !
 ! D21   D(5,6,7,8)              0.0            estimate D2E/DX2                !
 ! D22   D(5,6,7,12)           180.0            estimate D2E/DX2                !
 ! D23   D(11,6,7,8)           180.0            estimate D2E/DX2                !
 ! D24   D(11,6,7,12)            0.0            estimate D2E/DX2                !
 ! D25   D(6,7,8,9)              0.0            estimate D2E/DX2                !
 ! D26   D(6,7,8,13)           180.0            estimate D2E/DX2                !
 ! D27   D(12,7,8,9)           180.0            estimate D2E/DX2                !
 ! D28   D(12,7,8,13)            0.0            estimate D2E/DX2                !
 ! D29   D(7,8,9,10)             0.0            estimate D2E/DX2                !
 ! D30   D(7,8,9,14)           180.0            estimate D2E/DX2                !
 ! D31   D(13,8,9,10)          180.0            estimate D2E/DX2                !
 ! D32   D(13,8,9,14)            0.0            estimate D2E/DX2                !
 ! D33   D(8,9,10,5)             0.0            estimate D2E/DX2                !
 ! D34   D(8,9,10,15)          180.0            estimate D2E/DX2                !
 ! D35   D(14,9,10,5)          180.0            estimate D2E/DX2                !
 ! D36   D(14,9,10,15)           0.0            estimate D2E/DX2                !
 ! D37   D(5,10,15,1)            0.0            estimate D2E/DX2                !
 ! D38   D(5,10,15,16)         180.0            estimate D2E/DX2                !
 ! D39   D(9,10,15,1)          180.0            estimate D2E/DX2                !
 ! D40   D(9,10,15,16)           0.0            estimate D2E/DX2                !
 ! D41   D(1,15,17,18)         -89.8786         estimate D2E/DX2                !
 ! D42   D(1,15,17,19)          89.7967         estimate D2E/DX2                !
 ! D43   D(10,15,17,18)         90.0704         estimate D2E/DX2                !
 ! D44   D(10,15,17,19)        -90.2543         estimate D2E/DX2                !
 --------------------------------------------------------------------------------
 Trust Radius=3.00D-01 FncErr=1.00D-07 GrdErr=1.00D-06 EigMax=2.50D+02 EigMin=1.00D-04
 Number of steps in this run=    106 maximum allowed number of steps=    114.
 GradGradGradGradGradGradGradGradGradGradGradGradGradGradGradGradGradGrad

                          Input orientation:                          
 ---------------------------------------------------------------------
 Center     Atomic      Atomic             Coordinates (Angstroms)
 Number     Number       Type             X           Y           Z
 ---------------------------------------------------------------------
      1          6           0        2.382360    0.030880    0.000000
      2          1           0        3.452910   -0.081910    0.000000
      3          6           0        1.620230    1.163070    0.000000
      4          1           0        1.993650    2.172680    0.000000
      5          6           0        0.247930    0.748110    0.000000
      6          6           0       -0.979670    1.423880    0.000000
      7          6           0       -2.151370    0.689450    0.000000
      8          6           0       -2.128180   -0.716130    0.000000
      9          6           0       -0.932260   -1.413350    0.000000
     10          6           0        0.246630   -0.670020    0.000000
     11          1           0       -1.009270    2.505610    0.000000
     12          1           0       -3.104480    1.200630    0.000000
     13          1           0       -3.061680   -1.262180    0.000000
     14          1           0       -0.917380   -2.495430    0.000000
     15          7           0        1.562220   -1.077800    0.000000
     16          1           0        1.876700   -2.030170    0.000000
     17          8           0        2.443760   -3.792930   -0.001790
     18          1           0        2.631660   -4.367540   -0.763160
     19          1           0        2.634070   -4.369250    0.757690
 ---------------------------------------------------------------------
                    Distance matrix (angstroms):
                    1          2          3          4          5
     1  C    0.000000
     2  H    1.076475   0.000000
     3  C    1.364806   2.215557   0.000000
     4  H    2.176787   2.685631   1.076455   0.000000
     5  C    2.251713   3.310714   1.433666   2.253206   0.000000
     6  C    3.639189   4.681364   2.612949   3.066159   1.401309
     7  C    4.581312   5.657115   3.801221   4.402404   2.400017
     8  C    4.571979   5.617010   4.193086   5.033359   2.791039
     9  C    3.615592   4.582843   3.626727   4.628235   2.462673
    10  C    2.247800   3.259771   2.290632   3.336618   1.418131
    11  H    4.198505   5.158130   2.952403   3.021319   2.160870
    12  H    5.610145   6.681637   4.724859   5.189972   3.382813
    13  H    5.595496   6.620643   5.272771   6.111843   3.872310
    14  H    4.155782   4.992446   4.452425   5.501395   3.446520
    15  N    1.379058   2.136938   2.241621   3.278986   2.249735
    16  H    2.122173   2.506024   3.203523   4.204477   3.220517
    17  O    3.824303   3.845784   5.023957   5.982567   5.044077
    18  H    4.471092   4.429841   5.673892   6.615433   5.695126
    19  H    4.471979   4.430110   5.675256   6.616727   5.696941
                    6          7          8          9         10
     6  C    0.000000
     7  C    1.382848   0.000000
     8  C    2.428728   1.405771   0.000000
     9  C    2.837626   2.430637   1.384319   0.000000
    10  C    2.426567   2.756549   2.375258   1.393672   0.000000
    11  H    1.082135   2.145421   3.410508   3.919717   3.414954
    12  H    2.136506   1.081538   2.151077   3.398740   3.837873
    13  H    3.398483   2.153491   1.081477   2.134779   3.360888
    14  H    3.919805   3.415581   2.152195   1.082182   2.164957
    15  N    3.566456   4.112654   3.708080   2.516947   1.377339
    16  H    4.482110   4.860214   4.214945   2.875887   2.123002
    17  O    6.239790   6.419264   5.510838   4.130365   3.818370
    18  H    6.867653   7.002352   6.047420   4.691607   4.465695
    19  H    6.869757   7.004640   6.049662   4.693629   4.467468
                   11         12         13         14         15
    11  H    0.000000
    12  H    2.468376   0.000000
    13  H    4.290528   2.463182   0.000000
    14  H    5.001884   4.294679   2.473647   0.000000
    15  N    4.410600   5.193201   4.627575   2.856237   0.000000
    16  H    5.376069   5.937190   4.997740   2.832552   1.002949
    17  O    7.182968   7.464490   6.059255   3.602884   2.854654
    18  H    7.815304   8.030581   6.529915   4.084470   3.542387
    19  H    7.817399   8.032970   6.532193   4.086330   3.543529
                   16         17         18         19
    16  H    0.000000
    17  O    1.851724   0.000000
    18  H    2.572096   0.972197   0.000000
    19  H    2.572741   0.972200   1.520853   0.000000
 Stoichiometry    C8H9NO
 Framework group  C1[X(C8H9NO)]
 Deg. of freedom    51
 Full point group                 C1      NOp   1
 Largest Abelian subgroup         C1      NOp   1
 Largest concise Abelian subgroup C1      NOp   1
                         Standard orientation:                         
 ---------------------------------------------------------------------
 Center     Atomic      Atomic             Coordinates (Angstroms)
 Number     Number       Type             X           Y           Z
 ---------------------------------------------------------------------
      1          6           0       -1.133142    1.788094   -0.000258
      2          1           0       -2.005138    2.419301   -0.000369
      3          6           0        0.190314    2.121504    0.000125
      4          1           0        0.586863    3.122255    0.000389
      5          6           0        0.934315    0.895999    0.000105
      6          6           0        2.299257    0.578824    0.000391
      7          6           0        2.680571   -0.750412    0.000264
      8          6           0        1.724372   -1.780885   -0.000144
      9          6           0        0.368675   -1.500834   -0.000433
     10          6           0       -0.012044   -0.160173   -0.000304
     11          1           0        3.043891    1.364021    0.000706
     12          1           0        3.731303   -1.006705    0.000482
     13          1           0        2.054269   -2.810817   -0.000233
     14          1           0       -0.365239   -2.296125   -0.000747
     15          7           0       -1.263444    0.415206   -0.000519
     16          1           0       -2.133658   -0.083425   -0.000817
     17          8           0       -3.733180   -1.016383    0.000422
     18          1           0       -4.257041   -1.318587    0.761612
     19          1           0       -4.259600   -1.317997   -0.759239
 ---------------------------------------------------------------------
 Rotational constants (GHZ):           2.1632890           0.9482134           0.6612613
 Standard basis: 6-31+G(d) (6D, 7F)
 There are   208 symmetry adapted cartesian basis functions of A   symmetry.
 There are   208 symmetry adapted basis functions of A   symmetry.
   208 basis functions,   356 primitive gaussians,   208 cartesian basis functions
    36 alpha electrons       36 beta electrons
       nuclear repulsion energy       482.9184082621 Hartrees.
 NAtoms=   19 NActive=   19 NUniq=   19 SFac= 1.00D+00 NAtFMM=   60 NAOKFM=F Big=F
 Integral buffers will be    131072 words long.
 Raffenetti 1 integral format.
 Two-electron integral symmetry is turned on.
 One-electron integrals computed using PRISM.
 NBasis=   208 RedAO= T EigKep=  1.18D-06  NBF=   208
 NBsUse=   208 1.00D-06 EigRej= -1.00D+00 NBFU=   208
 ExpMin= 4.38D-02 ExpMax= 5.48D+03 ExpMxC= 8.25D+02 IAcc=3 IRadAn=         5 AccDes= 0.00D+00
 Harris functional with IExCor=10402 and IRadAn=       5 diagonalized for initial guess.
 HarFok:  IExCor=10402 AccDes= 0.00D+00 IRadAn=         5 IDoV= 1 UseB2=F ITyADJ=14
 ICtDFT=  3500011 ScaDFX=  1.000000  1.000000  1.000000  1.000000
 FoFCou: FMM=F IPFlag=           0 FMFlag=      100000 FMFlg1=           0
         NFxFlg=           0 DoJE=T BraDBF=F KetDBF=T FulRan=T
         wScrn=  0.000000 ICntrl=       500 IOpCl=  0 I1Cent=   200000004 NGrid=           0
         NMat0=    1 NMatS0=      1 NMatT0=    0 NMatD0=    1 NMtDS0=    0 NMtDT0=    0
 Petite list used in FoFCou.
 Requested convergence on RMS density matrix=1.00D-08 within 128 cycles.
 Requested convergence on MAX density matrix=1.00D-06.
 Requested convergence on             energy=1.00D-06.
 No special actions if energy rises.
 SCF Done:  E(RLC-B+HF-LYP) =  -439.017873614     A.U. after   16 cycles
            NFock= 16  Conv=0.37D-08     -V/T= 2.0088
 DoSCS=F DFT=T ScalE2(SS,OS)=  1.000000  1.000000
 ExpMin= 4.38D-02 ExpMax= 5.48D+03 ExpMxC= 8.25D+02 IAcc=3 IRadAn=         5 AccDes= 0.00D+00
 HarFok:  IExCor=  205 AccDes= 0.00D+00 IRadAn=         5 IDoV=-2 UseB2=F ITyADJ=14
 ICtDFT= 12500011 ScaDFX=  1.000000  1.000000  1.000000  1.000000
 Range of M.O.s used for correlation:    11   208
 NBasis=   208 NAE=    36 NBE=    36 NFC=    10 NFV=     0
 NROrb=    198 NOA=    26 NOB=    26 NVA=   172 NVB=   172

 **** Warning!!: The largest alpha MO coefficient is  0.21824594D+03

 Orbital symmetries:
       Occupied  (A) (A) (A) (A) (A) (A) (A) (A) (A) (A) (A) (A)
                 (A) (A) (A) (A) (A) (A) (A) (A) (A) (A) (A) (A)
                 (A) (A) (A) (A) (A) (A) (A) (A) (A) (A) (A) (A)
       Virtual   (A) (A) (A) (A) (A) (A) (A) (A) (A) (A) (A) (A)
                 (A) (A) (A) (A) (A) (A) (A) (A) (A) (A) (A) (A)
                 (A) (A) (A) (A) (A) (A) (A) (A) (A) (A) (A) (A)
                 (A) (A) (A) (A) (A) (A) (A) (A) (A) (A) (A) (A)
                 (A) (A) (A) (A) (A) (A) (A) (A) (A) (A) (A) (A)
                 (A) (A) (A) (A) (A) (A) (A) (A) (A) (A) (A) (A)
                 (A) (A) (A) (A) (A) (A) (A) (A) (A) (A) (A) (A)
                 (A) (A) (A) (A) (A) (A) (A) (A) (A) (A) (A) (A)
                 (A) (A) (A) (A) (A) (A) (A) (A) (A) (A) (A) (A)
                 (A) (A) (A) (A) (A) (A) (A) (A) (A) (A) (A) (A)
                 (A) (A) (A) (A) (A) (A) (A) (A) (A) (A) (A) (A)
                 (A) (A) (A) (A) (A) (A) (A) (A) (A) (A) (A) (A)
                 (A) (A) (A) (A) (A) (A) (A) (A) (A) (A) (A) (A)
                 (A) (A) (A) (A) (A) (A) (A) (A) (A) (A) (A) (A)
                 (A) (A) (A) (A)
    12 initial guesses have been made.
 Convergence on wavefunction:    0.000001000000000
 Iteration     1 Dimension    12 NMult     0 NNew     12
 CISAX will form    12 AO SS matrices at one time.
 New state      2 was old state      4
 New state      3 was old state      9
 Iteration     2 Dimension    18 NMult    12 NNew      6
 New state      1 was old state      2
 New state      2 was old state      3
 New state      3 was old state      1
 Iteration     3 Dimension    24 NMult    18 NNew      6
 New state      1 was old state      2
 New state      2 was old state      1
 Iteration     4 Dimension    30 NMult    24 NNew      6
 Iteration     5 Dimension    36 NMult    30 NNew      6
 Iteration     6 Dimension    42 NMult    36 NNew      6
 Iteration     7 Dimension    48 NMult    42 NNew      6
 Iteration     8 Dimension    54 NMult    48 NNew      6
 Iteration     9 Dimension    60 NMult    54 NNew      6
 Iteration    10 Dimension    66 NMult    60 NNew      6
 Iteration    11 Dimension    72 NMult    66 NNew      6
 Iteration    12 Dimension    78 NMult    72 NNew      6
 Iteration    13 Dimension    84 NMult    78 NNew      6
 Iteration    14 Dimension    86 NMult    84 NNew      2
 Iteration    15 Dimension    88 NMult    86 NNew      2
 ***********************************************************************
 Excited states from <AA,BB:AA,BB> singles matrix:
 ***********************************************************************
 
 Ground to excited state transition densities written to RWF  633
 Ground to excited state transition electric dipole moments (Au):
       state          X           Y           Z        Dip. S.      Osc.
         1        -0.0238     -0.5712     -0.0001      0.3268      0.0416
         2         1.0238     -0.1053      0.0002      1.0593      0.1374
         3         0.0001     -0.0001     -0.2577      0.0664      0.0096
 Ground to excited state transition velocity dipole moments (Au):
       state          X           Y           Z        Dip. S.      Osc.
         1         0.0093      0.1110      0.0000      0.0124      0.0434
         2        -0.1946      0.0072     -0.0000      0.0379      0.1300
         3        -0.0000      0.0000      0.0474      0.0022      0.0069
 Ground to excited state transition magnetic dipole moments (Au):
       state          X           Y           Z
         1        -0.0000     -0.0001      0.3149
         2         0.0000      0.0001     -0.0155
         3         0.2449      0.0663      0.0001
 Ground to excited state transition velocity quadrupole moments (Au):
       state          XX          YY          ZZ          XY          XZ          YZ
         1        -0.0478      0.0031      0.0153      0.1037      0.0000     -0.0000
         2        -0.3231     -0.0108      0.0243     -0.2735     -0.0001     -0.0001
         3        -0.0001     -0.0000      0.0000     -0.0000     -0.0899      0.1842
 <0|del|b> * <b|rxdel|0> + <0|del|b> * <b|delr+rdel|0>
 Rotatory Strengths (R) in cgs (10**-40 erg-esu-cm/Gauss)
       state          XX          YY          ZZ    R(velocity)    E-M Angle
         1        -0.0027      0.0062     -0.0091     -0.0019       90.00
         2         0.0235      0.0069     -0.0340     -0.0012       90.00
         3         0.0077     -0.0033     -0.0022      0.0007       90.00
 1/2[<0|r|b>*<b|rxdel|0> + (<0|rxdel|b>*<b|r|0>)*]
 Rotatory Strengths (R) in cgs (10**-40 erg-esu-cm/Gauss)
       state          XX          YY          ZZ     R(length)
         1        -0.0002     -0.0254      0.0184     -0.0024
         2        -0.0091      0.0087      0.0022      0.0006
         3        -0.0146      0.0026      0.0136      0.0005
  1/2[<0|del|b>*<b|r|0> + (<0|r|b>*<b|del|0>)*] (Au)
       state          X           Y           Z        Dip. S.   Osc.(frdel)
         1        -0.0002     -0.0634     -0.0000      0.0636      0.0424
         2        -0.1993     -0.0008     -0.0000      0.2000      0.1333
         3        -0.0000     -0.0000     -0.0122      0.0122      0.0081

 Excitation energies and oscillator strengths:
 
 Excited State   1:      Singlet-A      5.1922 eV  238.79 nm  f=0.0416  <S**2>=0.000
      35 -> 39         0.55552
      35 -> 44        -0.12528
      36 -> 39        -0.15945
      36 -> 44        -0.25485
      36 -> 45        -0.16617
 This state for optimization and/or second-order correction.
 Total Energy, E(TD-HF/TD-DFT) =  -438.827064396    
 Copying the excited state density for this state as the 1-particle RhoCI density.
 
 Excited State   2:      Singlet-A      5.2943 eV  234.19 nm  f=0.1374  <S**2>=0.000
      35 -> 39         0.13413
      35 -> 44         0.17737
      35 -> 45         0.12368
      36 -> 39         0.61911
      36 -> 44        -0.14243
 
 Excited State   3:      Singlet-A      5.8701 eV  211.21 nm  f=0.0096  <S**2>=0.000
      36 -> 37         0.56362
      36 -> 38        -0.14951
      36 -> 40        -0.22810
      36 -> 41         0.13696
      36 -> 43        -0.18469
      36 -> 46         0.13793
 SavETr:  write IOETrn=   770 NScale= 10 NData=  16 NLR=1 NState=    3 LETran=      64.
          IDoAtm=1111111111111111111
          Differentiating once with respect to electric field.
                with respect to dipole field.
          Differentiating once with respect to nuclear coordinates.
          There are     1 degrees of freedom in the 1st order CPHF.  IDoFFX=0 NUNeed=     1.
 LinEq1:  Iter=  0 NonCon=     1 RMS=3.00D-03 Max=5.96D-02 NDo=     1
 AX will form     1 AO Fock derivatives at one time.
 LinEq1:  Iter=  1 NonCon=     1 RMS=1.33D-03 Max=4.03D-02 NDo=     1
 LinEq1:  Iter=  2 NonCon=     1 RMS=5.52D-04 Max=1.22D-02 NDo=     1
 LinEq1:  Iter=  3 NonCon=     1 RMS=3.03D-04 Max=9.34D-03 NDo=     1
 LinEq1:  Iter=  4 NonCon=     1 RMS=1.05D-04 Max=2.14D-03 NDo=     1
 LinEq1:  Iter=  5 NonCon=     1 RMS=4.81D-05 Max=1.67D-03 NDo=     1
 LinEq1:  Iter=  6 NonCon=     1 RMS=2.07D-05 Max=5.72D-04 NDo=     1
 LinEq1:  Iter=  7 NonCon=     1 RMS=7.21D-06 Max=1.49D-04 NDo=     1
 LinEq1:  Iter=  8 NonCon=     1 RMS=3.33D-06 Max=6.29D-05 NDo=     1
 LinEq1:  Iter=  9 NonCon=     1 RMS=1.05D-06 Max=2.10D-05 NDo=     1
 LinEq1:  Iter= 10 NonCon=     1 RMS=5.61D-07 Max=1.44D-05 NDo=     1
 LinEq1:  Iter= 11 NonCon=     1 RMS=1.97D-07 Max=4.77D-06 NDo=     1
 LinEq1:  Iter= 12 NonCon=     1 RMS=8.95D-08 Max=2.02D-06 NDo=     1
 LinEq1:  Iter= 13 NonCon=     1 RMS=3.06D-08 Max=6.27D-07 NDo=     1
 LinEq1:  Iter= 14 NonCon=     1 RMS=1.04D-08 Max=1.59D-07 NDo=     1
 LinEq1:  Iter= 15 NonCon=     1 RMS=4.19D-09 Max=8.89D-08 NDo=     1
 LinEq1:  Iter= 16 NonCon=     1 RMS=1.22D-09 Max=3.33D-08 NDo=     1
 LinEq1:  Iter= 17 NonCon=     1 RMS=6.06D-10 Max=8.65D-09 NDo=     1
 LinEq1:  Iter= 18 NonCon=     1 RMS=1.86D-10 Max=3.35D-09 NDo=     1
 LinEq1:  Iter= 19 NonCon=     0 RMS=5.98D-11 Max=9.14D-10 NDo=     1
 Linear equations converged to 1.000D-10 1.000D-09 after    19 iterations.
 End of Minotr F.D. properties file   721 does not exist.
 End of Minotr F.D. properties file   722 does not exist.
 End of Minotr F.D. properties file   788 does not exist.

 **********************************************************************

            Population analysis using the SCF Density.

 **********************************************************************

 Orbital symmetries:
       Occupied  (A) (A) (A) (A) (A) (A) (A) (A) (A) (A) (A) (A)
                 (A) (A) (A) (A) (A) (A) (A) (A) (A) (A) (A) (A)
                 (A) (A) (A) (A) (A) (A) (A) (A) (A) (A) (A) (A)
       Virtual   (A) (A) (A) (A) (A) (A) (A) (A) (A) (A) (A) (A)
                 (A) (A) (A) (A) (A) (A) (A) (A) (A) (A) (A) (A)
                 (A) (A) (A) (A) (A) (A) (A) (A) (A) (A) (A) (A)
                 (A) (A) (A) (A) (A) (A) (A) (A) (A) (A) (A) (A)
                 (A) (A) (A) (A) (A) (A) (A) (A) (A) (A) (A) (A)
                 (A) (A) (A) (A) (A) (A) (A) (A) (A) (A) (A) (A)
                 (A) (A) (A) (A) (A) (A) (A) (A) (A) (A) (A) (A)
                 (A) (A) (A) (A) (A) (A) (A) (A) (A) (A) (A) (A)
                 (A) (A) (A) (A) (A) (A) (A) (A) (A) (A) (A) (A)
                 (A) (A) (A) (A) (A) (A) (A) (A) (A) (A) (A) (A)
                 (A) (A) (A) (A) (A) (A) (A) (A) (A) (A) (A) (A)
                 (A) (A) (A) (A) (A) (A) (A) (A) (A) (A) (A) (A)
                 (A) (A) (A) (A) (A) (A) (A) (A) (A) (A) (A) (A)
                 (A) (A) (A) (A) (A) (A) (A) (A) (A) (A) (A) (A)
                 (A) (A) (A) (A)
 The electronic state is 1-A.
 Alpha  occ. eigenvalues --  -19.08387 -14.27777 -10.17997 -10.17699 -10.14952
 Alpha  occ. eigenvalues --  -10.14651 -10.14625 -10.14279 -10.14027 -10.13257
 Alpha  occ. eigenvalues --   -1.21411  -1.13405  -1.00247  -0.93678  -0.88727
 Alpha  occ. eigenvalues --   -0.86868  -0.76602  -0.73176  -0.71975  -0.71219
 Alpha  occ. eigenvalues --   -0.67672  -0.61167  -0.60199  -0.58886  -0.55597
 Alpha  occ. eigenvalues --   -0.55514  -0.54435  -0.52999  -0.51001  -0.49854
 Alpha  occ. eigenvalues --   -0.47160  -0.45784  -0.44731  -0.38710  -0.31179
 Alpha  occ. eigenvalues --   -0.29405
 Alpha virt. eigenvalues --    0.04937   0.07074   0.07102   0.07329   0.08765
 Alpha virt. eigenvalues --    0.08875   0.11022   0.11152   0.11267   0.11388
 Alpha virt. eigenvalues --    0.11770   0.12116   0.14289   0.14778   0.14949
 Alpha virt. eigenvalues --    0.15693   0.16263   0.17493   0.17775   0.19618
 Alpha virt. eigenvalues --    0.20243   0.20895   0.21989   0.22282   0.23466
 Alpha virt. eigenvalues --    0.23634   0.24218   0.25142   0.25563   0.26443
 Alpha virt. eigenvalues --    0.26706   0.27791   0.28012   0.28018   0.28655
 Alpha virt. eigenvalues --    0.29139   0.30614   0.31712   0.32026   0.32824
 Alpha virt. eigenvalues --    0.33470   0.33744   0.34557   0.35622   0.35982
 Alpha virt. eigenvalues --    0.36304   0.36720   0.38345   0.39473   0.41635
 Alpha virt. eigenvalues --    0.41889   0.42619   0.43713   0.45353   0.46478
 Alpha virt. eigenvalues --    0.48465   0.52030   0.52453   0.57450   0.58982
 Alpha virt. eigenvalues --    0.64742   0.72276   0.76776   0.79610   0.80805
 Alpha virt. eigenvalues --    0.83586   0.84635   0.84795   0.86222   0.86532
 Alpha virt. eigenvalues --    0.87524   0.88322   0.89224   0.90500   0.91935
 Alpha virt. eigenvalues --    0.93968   0.97316   0.98380   1.02656   1.03043
 Alpha virt. eigenvalues --    1.04508   1.06735   1.07677   1.08140   1.08549
 Alpha virt. eigenvalues --    1.11902   1.11996   1.13959   1.15585   1.16985
 Alpha virt. eigenvalues --    1.17886   1.21269   1.22556   1.24922   1.26797
 Alpha virt. eigenvalues --    1.27654   1.29323   1.31591   1.32346   1.32986
 Alpha virt. eigenvalues --    1.36603   1.39056   1.39908   1.40716   1.46693
 Alpha virt. eigenvalues --    1.48962   1.50842   1.51313   1.56622   1.58345
 Alpha virt. eigenvalues --    1.58919   1.63050   1.63242   1.66029   1.66334
 Alpha virt. eigenvalues --    1.67206   1.70807   1.76487   1.82293   1.83249
 Alpha virt. eigenvalues --    1.89411   1.95470   2.01285   2.04799   2.06180
 Alpha virt. eigenvalues --    2.07502   2.10515   2.13262   2.16084   2.17665
 Alpha virt. eigenvalues --    2.23049   2.25271   2.27090   2.30650   2.34000
 Alpha virt. eigenvalues --    2.34645   2.39117   2.39925   2.42351   2.43296
 Alpha virt. eigenvalues --    2.43624   2.45316   2.48999   2.55363   2.58314
 Alpha virt. eigenvalues --    2.61283   2.71664   2.73563   2.75509   2.80756
 Alpha virt. eigenvalues --    2.82265   2.84285   2.86719   2.90924   2.98011
 Alpha virt. eigenvalues --    3.01312   3.02211   3.12558   3.14262   3.28605
 Alpha virt. eigenvalues --    3.41201   3.61444   4.03103   4.33572   4.39400
 Alpha virt. eigenvalues --    4.43812   4.46730   4.50030   4.55883   4.62468
 Alpha virt. eigenvalues --    4.67819   4.93087
          Condensed to atoms (all electrons):
               1          2          3          4          5          6
     1  C    7.148642   0.385992  -2.862961  -0.090564   3.262598   1.088610
     2  H    0.385992   0.495207  -0.057445  -0.000589  -0.001483  -0.017294
     3  C   -2.862961  -0.057445  13.437165   0.448337  -6.305370  -3.134317
     4  H   -0.090564  -0.000589   0.448337   0.501564  -0.112610  -0.128835
     5  C    3.262598  -0.001483  -6.305370  -0.112610  17.562397  -0.100502
     6  C    1.088610  -0.017294  -3.134317  -0.128835  -0.100502  12.055116
     7  C   -0.109746   0.001043   0.146131  -0.002912  -0.337709   0.388585
     8  C    0.184603   0.000046  -0.326535  -0.001469  -0.785874   0.554879
     9  C   -1.627530   0.011838   3.515669   0.017079  -4.223513  -2.786279
    10  C   -1.616419   0.042365   1.499242   0.165592  -4.293931  -1.549926
    11  H    0.004717  -0.000002  -0.066247   0.001375   0.062404   0.282448
    12  H    0.000546  -0.000000  -0.003303  -0.000001   0.040216  -0.033908
    13  H    0.001787  -0.000000  -0.003168   0.000000  -0.006325   0.031466
    14  H    0.006514   0.000002  -0.005723   0.000002   0.056728  -0.020021
    15  N    0.524196  -0.056538  -0.465309   0.007116   0.459660   0.078608
    16  H   -0.040181  -0.002676   0.026517  -0.000106   0.103207   0.018662
    17  O   -0.012707   0.000167   0.033893   0.000005  -0.092335  -0.017410
    18  H    0.001208  -0.000006  -0.002009  -0.000000   0.006394   0.000451
    19  H    0.001212  -0.000006  -0.002005  -0.000000   0.006369   0.000449
               7          8          9         10         11         12
     1  C   -0.109746   0.184603  -1.627530  -1.616419   0.004717   0.000546
     2  H    0.001043   0.000046   0.011838   0.042365  -0.000002  -0.000000
     3  C    0.146131  -0.326535   3.515669   1.499242  -0.066247  -0.003303
     4  H   -0.002912  -0.001469   0.017079   0.165592   0.001375  -0.000001
     5  C   -0.337709  -0.785874  -4.223513  -4.293931   0.062404   0.040216
     6  C    0.388585   0.554879  -2.786279  -1.549926   0.282448  -0.033908
     7  C    5.501817   0.555220   0.136536  -0.550746  -0.035535   0.333576
     8  C    0.555220   6.122251  -0.012029  -0.133364   0.020555  -0.046287
     9  C    0.136536  -0.012029  14.040840  -2.905595  -0.046742   0.024982
    10  C   -0.550746  -0.133364  -2.905595  16.002083   0.069917  -0.009578
    11  H   -0.035535   0.020555  -0.046742   0.069917   0.521661  -0.003713
    12  H    0.333576  -0.046287   0.024982  -0.009578  -0.003713   0.521468
    13  H   -0.043122   0.325453  -0.044930   0.044194  -0.000142  -0.004006
    14  H    0.016030  -0.015139   0.288833  -0.029787   0.000016  -0.000141
    15  N   -0.016109   0.019468  -0.382625  -0.163142  -0.000391   0.000261
    16  H   -0.002259  -0.010433  -0.079555  -0.069806   0.000004  -0.000000
    17  O    0.000533  -0.022071  -0.019336   0.156606  -0.000000   0.000000
    18  H   -0.000052  -0.000743  -0.007356   0.000898   0.000000  -0.000000
    19  H   -0.000051  -0.000737  -0.007306   0.000852   0.000000  -0.000000
              13         14         15         16         17         18
     1  C    0.001787   0.006514   0.524196  -0.040181  -0.012707   0.001208
     2  H   -0.000000   0.000002  -0.056538  -0.002676   0.000167  -0.000006
     3  C   -0.003168  -0.005723  -0.465309   0.026517   0.033893  -0.002009
     4  H    0.000000   0.000002   0.007116  -0.000106   0.000005  -0.000000
     5  C   -0.006325   0.056728   0.459660   0.103207  -0.092335   0.006394
     6  C    0.031466  -0.020021   0.078608   0.018662  -0.017410   0.000451
     7  C   -0.043122   0.016030  -0.016109  -0.002259   0.000533  -0.000052
     8  C    0.325453  -0.015139   0.019468  -0.010433  -0.022071  -0.000743
     9  C   -0.044930   0.288833  -0.382625  -0.079555  -0.019336  -0.007356
    10  C    0.044194  -0.029787  -0.163142  -0.069806   0.156606   0.000898
    11  H   -0.000142   0.000016  -0.000391   0.000004  -0.000000   0.000000
    12  H   -0.004006  -0.000141   0.000261  -0.000000   0.000000  -0.000000
    13  H    0.522218  -0.003633  -0.000462  -0.000001   0.000001   0.000000
    14  H   -0.003633   0.517930  -0.004803   0.001617  -0.000353   0.000004
    15  N   -0.000462  -0.004803   7.354244   0.265759  -0.092510   0.005169
    16  H   -0.000001   0.001617   0.265759   0.297986  -0.017992   0.000977
    17  O    0.000001  -0.000353  -0.092510  -0.017992   8.632852   0.229820
    18  H    0.000000   0.000004   0.005169   0.000977   0.229820   0.288419
    19  H    0.000000   0.000004   0.005178   0.000977   0.229832  -0.021937
              19
     1  C    0.001212
     2  H   -0.000006
     3  C   -0.002005
     4  H   -0.000000
     5  C    0.006369
     6  C    0.000449
     7  C   -0.000051
     8  C   -0.000737
     9  C   -0.007306
    10  C    0.000852
    11  H    0.000000
    12  H   -0.000000
    13  H    0.000000
    14  H    0.000004
    15  N    0.005178
    16  H    0.000977
    17  O    0.229832
    18  H   -0.021937
    19  H    0.288382
 Mulliken charges:
               1
     1  C   -0.250518
     2  H    0.199380
     3  C    0.127440
     4  H    0.196017
     5  C    0.699679
     6  C   -0.710783
     7  C    0.018768
     8  C   -0.427796
     9  C    0.107019
    10  C   -0.659454
    11  H    0.189675
    12  H    0.179888
    13  H    0.180671
    14  H    0.191922
    15  N   -0.537770
    16  H    0.507303
    17  O   -1.008995
    18  H    0.498763
    19  H    0.498788
 Sum of Mulliken charges =  -0.00000
 Mulliken charges with hydrogens summed into heavy atoms:
               1
     1  C   -0.051138
     3  C    0.323457
     5  C    0.699679
     6  C   -0.521108
     7  C    0.198656
     8  C   -0.247124
     9  C    0.298941
    10  C   -0.659454
    15  N   -0.030467
    17  O   -0.011443
 Electronic spatial extent (au):  <R**2>=           1672.9189
 Charge=             -0.0000 electrons
 Dipole moment (field-independent basis, Debye):
    X=             -5.2028    Y=             -1.6455    Z=              0.0023  Tot=              5.4568
 Quadrupole moment (field-independent basis, Debye-Ang):
   XX=            -34.1351   YY=            -54.0319   ZZ=            -63.4841
   XY=              8.5112   XZ=             -0.0046   YZ=             -0.0045
 Traceless Quadrupole moment (field-independent basis, Debye-Ang):
   XX=             16.4153   YY=             -3.4815   ZZ=            -12.9337
   XY=              8.5112   XZ=             -0.0046   YZ=             -0.0045
 Octapole moment (field-independent basis, Debye-Ang**2):
  XXX=           -132.7931  YYY=             -6.6222  ZZZ=              0.0122  XYY=            -19.7279
  XXY=            -40.8907  XXZ=              0.0193  XZZ=            -24.6604  YZZ=             -6.6781
  YYZ=              0.0110  XYZ=              0.0235
 Hexadecapole moment (field-independent basis, Debye-Ang**3):
 XXXX=           -834.2834 YYYY=           -681.0005 ZZZZ=            -81.2728 XXXY=            223.9007
 XXXZ=              0.0227 YYYX=             31.0772 YYYZ=             -0.0060 ZZZX=             -0.0512
 ZZZY=             -0.0216 XXYY=           -271.8199 XXZZ=           -225.4067 YYZZ=           -149.8007
 XXYZ=             -0.0655 YYXZ=             -0.0321 ZZXY=             28.3028
 N-N= 4.829184082621D+02 E-N=-1.988450986185D+03  KE= 4.351862547418D+02
 Calling FoFJK, ICntrl=  10005127 FMM=F ISym2X=0 I1Cent= 0 IOpClX= 0 NMat=1 NMatS=1 NMatT=0.
 ***** Axes restored to original set *****
 -------------------------------------------------------------------
 Center     Atomic                   Forces (Hartrees/Bohr)
 Number     Number              X              Y              Z
 -------------------------------------------------------------------
      1        6           0.006178166    0.015110630   -0.000000462
      2        1           0.002681932   -0.000405865    0.000000029
      3        6          -0.001242822   -0.010103100    0.000000052
      4        1           0.000411202    0.003314408   -0.000000072
      5        6           0.002643746    0.022759120    0.000000291
      6        6           0.026745240    0.020356951   -0.000000288
      7        6          -0.016652915   -0.018212859   -0.000000214
      8        6          -0.020786601    0.007540885    0.000000188
      9        6           0.010508556   -0.020982832   -0.000001413
     10        6           0.027592868   -0.021992365    0.000000067
     11        1           0.000267602    0.001742847    0.000000127
     12        1          -0.002106713    0.001257783    0.000000019
     13        1          -0.001963499   -0.000342434    0.000000172
     14        1           0.001021598   -0.001450486    0.000001034
     15        7          -0.039163005    0.015947481    0.000005456
     16        1           0.003303972   -0.012971653   -0.000005036
     17        8           0.005540329   -0.015390857   -0.000020720
     18        1          -0.002492124    0.006912596   -0.002094316
     19        1          -0.002487531    0.006909751    0.002115086
 -------------------------------------------------------------------
 Cartesian Forces:  Max     0.039163005 RMS     0.011320591

 GradGradGradGradGradGradGradGradGradGradGradGradGradGradGradGradGradGrad
 Berny optimization.
 FormGI is forming the generalized inverse of G from B-inverse, IUseBI=4.
 Internal  Forces:  Max     0.031185778 RMS     0.006135896
 Search for a local minimum.
 Step number   1 out of a maximum of  106
 All quantities printed in internal units (Hartrees-Bohrs-Radians)
 Mixed Optimization -- RFO/linear search
 Second derivative matrix not updated -- first step.
 ITU=  0
     Eigenvalues ---    0.00230   0.00230   0.00230   0.00230   0.01592
     Eigenvalues ---    0.01850   0.01939   0.02009   0.02057   0.02108
     Eigenvalues ---    0.02131   0.02146   0.02167   0.02207   0.02232
     Eigenvalues ---    0.02245   0.02330   0.05562   0.16000   0.16000
     Eigenvalues ---    0.16000   0.16000   0.16000   0.16000   0.16000
     Eigenvalues ---    0.16000   0.16000   0.22000   0.22188   0.22662
     Eigenvalues ---    0.24012   0.24651   0.35732   0.35738   0.35809
     Eigenvalues ---    0.35816   0.36424   0.36426   0.37018   0.38393
     Eigenvalues ---    0.42612   0.43408   0.45745   0.46592   0.47174
     Eigenvalues ---    0.47440   0.47538   0.48097   0.50888   0.52930
     Eigenvalues ---    0.52931
 RFO step:  Lambda=-8.43580734D-03 EMin= 2.30000000D-03
 Linear search not attempted -- first point.
 Iteration  1 RMS(Cart)=  0.02673629 RMS(Int)=  0.00020841
 Iteration  2 RMS(Cart)=  0.00031491 RMS(Int)=  0.00002989
 Iteration  3 RMS(Cart)=  0.00000005 RMS(Int)=  0.00002989
 Variable       Old X    -DE/DX   Delta X   Delta X   Delta X     New X
                                 (Linear)    (Quad)   (Total)
    R1        2.03424   0.00271   0.00000   0.00727   0.00727   2.04151
    R2        2.57911  -0.00580   0.00000  -0.01052  -0.01048   2.56863
    R3        2.60604   0.01461   0.00000   0.02828   0.02834   2.63438
    R4        2.03420   0.00325   0.00000   0.00872   0.00872   2.04293
    R5        2.70924  -0.00392   0.00000  -0.00805  -0.00809   2.70115
    R6        2.64809  -0.00309   0.00000  -0.00719  -0.00716   2.64093
    R7        2.67988   0.02156   0.00000   0.04924   0.04919   2.72907
    R8        2.61320   0.03119   0.00000   0.06304   0.06305   2.67625
    R9        2.04494   0.00174   0.00000   0.00474   0.00474   2.04968
   R10        2.65652   0.00462   0.00000   0.01060   0.01057   2.66710
   R11        2.04381   0.00245   0.00000   0.00669   0.00669   2.05050
   R12        2.61598   0.02178   0.00000   0.04477   0.04474   2.66073
   R13        2.04370   0.00187   0.00000   0.00509   0.00509   2.04879
   R14        2.63366   0.01133   0.00000   0.02388   0.02387   2.65753
   R15        2.04503   0.00146   0.00000   0.00400   0.00400   2.04903
   R16        2.60279  -0.02587   0.00000  -0.05234  -0.05234   2.55045
   R17        1.89530   0.01502   0.00000   0.03128   0.03128   1.92658
   R18        3.49925   0.00167   0.00000   0.02600   0.02600   3.52525
   R19        1.83719  -0.00293   0.00000  -0.00544  -0.00544   1.83174
   R20        1.83719  -0.00293   0.00000  -0.00545  -0.00545   1.83174
    A1        2.26824   0.00097   0.00000   0.00506   0.00501   2.27326
    A2        2.10273   0.00072   0.00000   0.00358   0.00353   2.10626
    A3        1.91221  -0.00170   0.00000  -0.00864  -0.00854   1.90367
    A4        2.19486   0.00091   0.00000   0.00376   0.00375   2.19861
    A5        1.86963  -0.00027   0.00000   0.00171   0.00172   1.87135
    A6        2.21870  -0.00064   0.00000  -0.00547  -0.00547   2.21323
    A7        2.34474   0.00047   0.00000   0.00146   0.00148   2.34622
    A8        1.86535  -0.00064   0.00000   0.00027   0.00015   1.86551
    A9        2.07309   0.00017   0.00000  -0.00173  -0.00164   2.07146
   A10        2.07848  -0.00433   0.00000  -0.01969  -0.01967   2.05881
   A11        2.10137   0.00184   0.00000   0.00793   0.00792   2.10928
   A12        2.10334   0.00249   0.00000   0.01176   0.01175   2.11509
   A13        2.11420   0.00583   0.00000   0.02673   0.02671   2.14090
   A14        2.08941  -0.00303   0.00000  -0.01405  -0.01404   2.07537
   A15        2.07958  -0.00280   0.00000  -0.01268  -0.01267   2.06691
   A16        2.11512  -0.00279   0.00000  -0.00980  -0.00987   2.10525
   A17        2.08358   0.00068   0.00000   0.00068   0.00071   2.08429
   A18        2.08449   0.00211   0.00000   0.00912   0.00916   2.09365
   A19        2.05120  -0.00445   0.00000  -0.01780  -0.01785   2.03335
   A20        2.11237   0.00325   0.00000   0.01498   0.01500   2.12737
   A21        2.11961   0.00120   0.00000   0.00282   0.00285   2.12246
   A22        2.13428   0.00557   0.00000   0.02228   0.02231   2.15660
   A23        1.87045  -0.00277   0.00000  -0.01258  -0.01264   1.85781
   A24        2.27845  -0.00280   0.00000  -0.00970  -0.00968   2.26878
   A25        1.90713   0.00538   0.00000   0.01925   0.01931   1.92645
   A26        2.18575  -0.00170   0.00000  -0.00374  -0.00377   2.18198
   A27        2.19030  -0.00368   0.00000  -0.01551  -0.01554   2.17476
   A28        2.24284  -0.00432   0.00000  -0.02559  -0.02566   2.21719
   A29        2.24402  -0.00432   0.00000  -0.02560  -0.02566   2.21836
   A30        1.79629   0.00864   0.00000   0.05134   0.05128   1.84757
   A31        3.13389  -0.00011   0.00000  -0.01045  -0.01045   3.12344
   A32        3.14062   0.00000   0.00000   0.00036   0.00037   3.14098
    D1        0.00000  -0.00000   0.00000  -0.00000  -0.00000  -0.00000
    D2        3.14159  -0.00000   0.00000  -0.00002  -0.00002   3.14158
    D3        3.14159  -0.00000   0.00000  -0.00000  -0.00000   3.14159
    D4       -0.00000  -0.00000   0.00000  -0.00002  -0.00002  -0.00002
    D5        3.14159   0.00000   0.00000   0.00002   0.00002  -3.14157
    D6       -0.00000  -0.00000   0.00000  -0.00005  -0.00005  -0.00005
    D7        0.00000   0.00000   0.00000   0.00002   0.00002   0.00002
    D8        3.14159  -0.00000   0.00000  -0.00005  -0.00005   3.14155
    D9        3.14159   0.00000   0.00000   0.00001   0.00001  -3.14158
   D10        0.00000   0.00000   0.00000   0.00001   0.00001   0.00001
   D11       -0.00000  -0.00000   0.00000  -0.00000  -0.00000  -0.00000
   D12        3.14159  -0.00000   0.00000  -0.00001  -0.00001   3.14158
   D13        3.14159  -0.00000   0.00000  -0.00001  -0.00001   3.14159
   D14        0.00000  -0.00000   0.00000  -0.00001  -0.00001  -0.00001
   D15       -0.00000   0.00000   0.00000   0.00000   0.00000   0.00000
   D16        3.14159   0.00000   0.00000   0.00000   0.00000  -3.14159
   D17        3.14159   0.00000   0.00000   0.00000   0.00000  -3.14159
   D18       -0.00000   0.00000   0.00000   0.00001   0.00001   0.00001
   D19        0.00000   0.00000   0.00000  -0.00000  -0.00000  -0.00000
   D20        3.14159   0.00000   0.00000   0.00000   0.00000  -3.14159
   D21        0.00000   0.00000   0.00000   0.00000   0.00000   0.00000
   D22        3.14159  -0.00000   0.00000  -0.00000  -0.00000   3.14159
   D23        3.14159   0.00000   0.00000   0.00000   0.00000  -3.14159
   D24       -0.00000  -0.00000   0.00000  -0.00000  -0.00000  -0.00000
   D25       -0.00000  -0.00000   0.00000  -0.00001  -0.00001  -0.00001
   D26        3.14159  -0.00000   0.00000  -0.00001  -0.00001   3.14158
   D27        3.14159  -0.00000   0.00000  -0.00000  -0.00000   3.14159
   D28        0.00000  -0.00000   0.00000  -0.00000  -0.00000  -0.00000
   D29        0.00000   0.00000   0.00000   0.00001   0.00001   0.00001
   D30        3.14159  -0.00000   0.00000  -0.00002  -0.00002   3.14158
   D31        3.14159   0.00000   0.00000   0.00001   0.00001  -3.14158
   D32       -0.00000  -0.00000   0.00000  -0.00001  -0.00001  -0.00001
   D33       -0.00000  -0.00000   0.00000  -0.00000  -0.00000  -0.00000
   D34        3.14159  -0.00000   0.00000  -0.00001  -0.00001   3.14159
   D35        3.14159   0.00000   0.00000   0.00002   0.00002  -3.14157
   D36        0.00000   0.00000   0.00000   0.00002   0.00002   0.00002
   D37       -0.00000  -0.00000   0.00000  -0.00002  -0.00002  -0.00002
   D38        3.14159   0.00000   0.00000   0.00005   0.00005  -3.14154
   D39        3.14159  -0.00000   0.00000  -0.00001  -0.00001   3.14158
   D40       -0.00000   0.00000   0.00000   0.00005   0.00005   0.00005
   D41       -1.56868  -0.00017   0.00000  -0.01530  -0.01530  -1.58397
   D42        1.56725   0.00016   0.00000   0.01510   0.01510   1.58235
   D43        1.57203  -0.00016   0.00000  -0.01503  -0.01503   1.55700
   D44       -1.57523   0.00017   0.00000   0.01537   0.01537  -1.55987
         Item               Value     Threshold  Converged?
 Maximum Force            0.031186     0.000450     NO 
 RMS     Force            0.006136     0.000300     NO 
 Maximum Displacement     0.095248     0.001800     NO 
 RMS     Displacement     0.026822     0.001200     NO 
 Predicted change in Energy=-4.318306D-03
 GradGradGradGradGradGradGradGradGradGradGradGradGradGradGradGradGradGrad

                          Input orientation:                          
 ---------------------------------------------------------------------
 Center     Atomic      Atomic             Coordinates (Angstroms)
 Number     Number       Type             X           Y           Z
 ---------------------------------------------------------------------
      1          6           0        2.391331    0.058254   -0.000099
      2          1           0        3.465279   -0.058940   -0.000152
      3          6           0        1.630844    1.184865    0.000033
      4          1           0        2.000747    2.200683    0.000111
      5          6           0        0.262463    0.771727    0.000029
      6          6           0       -0.962529    1.444375    0.000115
      7          6           0       -2.146653    0.667520    0.000068
      8          6           0       -2.131811   -0.743768   -0.000060
      9          6           0       -0.912689   -1.448180   -0.000155
     10          6           0        0.260305   -0.672434   -0.000107
     11          1           0       -1.001928    2.528304    0.000216
     12          1           0       -3.106289    1.173968    0.000137
     13          1           0       -3.070510   -1.286240   -0.000082
     14          1           0       -0.877303   -2.531903   -0.000240
     15          7           0        1.554164   -1.056440   -0.000166
     16          1           0        1.870458   -2.025635   -0.000304
     17          8           0        2.416920   -3.809284   -0.001689
     18          1           0        2.581366   -4.368914   -0.775863
     19          1           0        2.583667   -4.370358    0.770946
 ---------------------------------------------------------------------
                    Distance matrix (angstroms):
                    1          2          3          4          5
     1  C    0.000000
     2  H    1.080323   0.000000
     3  C    1.359262   2.216349   0.000000
     4  H    2.177742   2.692722   1.081071   0.000000
     5  C    2.245244   3.308781   1.429388   2.250233   0.000000
     6  C    3.629010   4.676050   2.606325   3.058269   1.397520
     7  C    4.578702   5.658757   3.812759   4.421710   2.411370
     8  C    4.593698   5.638831   4.228144   5.074233   2.833598
     9  C    3.631239   4.593103   3.660941   4.669295   2.511766
    10  C    2.252816   3.263163   2.308233   3.359158   1.444163
    11  H    4.197066   5.162342   2.955727   3.020496   2.164313
    12  H    5.609693   6.686222   4.737146   5.209219   3.392682
    13  H    5.624889   6.650023   5.311224   6.154371   3.917134
    14  H    4.170478   4.997356   4.483879   5.539002   3.494716
    15  N    1.394056   2.155775   2.242617   3.287596   2.238456
    16  H    2.148000   2.532064   3.219430   4.228326   3.226590
    17  O    3.867623   3.894115   5.055635   6.024359   5.062346
    18  H    4.498638   4.467539   5.687704   6.640698   5.692584
    19  H    4.499346   4.467679   5.688821   6.641729   5.694149
                    6          7          8          9         10
     6  C    0.000000
     7  C    1.416211   0.000000
     8  C    2.480966   1.411367   0.000000
     9  C    2.892984   2.449255   1.407996   0.000000
    10  C    2.444628   2.754800   2.393180   1.406306   0.000000
    11  H    1.084645   2.184700   3.461661   3.977485   3.440634
    12  H    2.160747   1.085076   2.151121   3.418704   3.839682
    13  H    3.449615   2.161178   1.084173   2.163889   3.386899
    14  H    3.977191   3.442028   2.184311   1.084301   2.179857
    15  N    3.547933   4.082657   3.699214   2.497764   1.349642
    16  H    4.479597   4.836349   4.202540   2.842422   2.103270
    17  O    6.246728   6.392807   5.485285   4.081803   3.806681
    18  H    6.852421   6.951396   5.996465   4.619614   4.433180
    19  H    6.854255   6.953445   5.998528   4.621497   4.434769
                   11         12         13         14         15
    11  H    0.000000
    12  H    2.502511   0.000000
    13  H    4.339329   2.460468   0.000000
    14  H    5.061741   4.324565   2.522267   0.000000
    15  N    4.402727   5.166677   4.630381   2.844121   0.000000
    16  H    5.384140   5.916542   4.995985   2.794011   1.019500
    17  O    7.200941   7.438995   6.039673   3.533216   2.884874
    18  H    7.811141   7.979671   6.484476   3.992317   3.553777
    19  H    7.812942   7.981811   6.486601   3.994116   3.554791
                   16         17         18         19
    16  H    0.000000
    17  O    1.865482   0.000000
    18  H    2.568626   0.969317   0.000000
    19  H    2.569284   0.969316   1.546811   0.000000
 Stoichiometry    C8H9NO
 Framework group  C1[X(C8H9NO)]
 Deg. of freedom    51
 Full point group                 C1      NOp   1
 Largest Abelian subgroup         C1      NOp   1
 Largest concise Abelian subgroup C1      NOp   1
                         Standard orientation:                         
 ---------------------------------------------------------------------
 Center     Atomic      Atomic             Coordinates (Angstroms)
 Number     Number       Type             X           Y           Z
 ---------------------------------------------------------------------
      1          6           0       -1.098964    1.825023   -0.000168
      2          1           0       -1.969090    2.465318   -0.000229
      3          6           0        0.223272    2.140122    0.000087
      4          1           0        0.638148    3.138416    0.000278
      5          6           0        0.951410    0.910095    0.000072
      6          6           0        2.308564    0.576636    0.000274
      7          6           0        2.654940   -0.796564    0.000181
      8          6           0        1.689183   -1.825772   -0.000106
      9          6           0        0.314862   -1.519673   -0.000308
     10          6           0       -0.024069   -0.154821   -0.000216
     11          1           0        3.070925    1.348167    0.000493
     12          1           0        3.704245   -1.072880    0.000331
     13          1           0        2.013408   -2.860329   -0.000173
     14          1           0       -0.444404   -2.293768   -0.000543
     15          7           0       -1.236650    0.437783   -0.000366
     16          1           0       -2.125287   -0.061923   -0.000535
     17          8           0       -3.734446   -1.005655    0.000286
     18          1           0       -4.234363   -1.306628    0.774285
     19          1           0       -4.236643   -1.305878   -0.772525
 ---------------------------------------------------------------------
 Rotational constants (GHZ):           2.1013875           0.9567606           0.6595009
 Standard basis: 6-31+G(d) (6D, 7F)
 There are   208 symmetry adapted cartesian basis functions of A   symmetry.
 There are   208 symmetry adapted basis functions of A   symmetry.
   208 basis functions,   356 primitive gaussians,   208 cartesian basis functions
    36 alpha electrons       36 beta electrons
       nuclear repulsion energy       481.0829237172 Hartrees.
 NAtoms=   19 NActive=   19 NUniq=   19 SFac= 1.00D+00 NAtFMM=   60 NAOKFM=F Big=F
 Integral buffers will be    131072 words long.
 Raffenetti 1 integral format.
 Two-electron integral symmetry is turned on.
 One-electron integrals computed using PRISM.
 NBasis=   208 RedAO= T EigKep=  1.26D-06  NBF=   208
 NBsUse=   208 1.00D-06 EigRej= -1.00D+00 NBFU=   208
 Initial guess from the checkpoint file:  "/scratch/gfoley1/17019645/Gau-22601.chk"
 B after Tr=    -0.000000    0.000000    0.000000
         Rot=    0.999983   -0.000002    0.000000    0.005860 Ang=  -0.67 deg.
 ExpMin= 4.38D-02 ExpMax= 5.48D+03 ExpMxC= 8.25D+02 IAcc=3 IRadAn=         5 AccDes= 0.00D+00
 Harris functional with IExCor=10402 and IRadAn=       5 diagonalized for initial guess.
 HarFok:  IExCor=10402 AccDes= 0.00D+00 IRadAn=         5 IDoV= 1 UseB2=F ITyADJ=14
 ICtDFT=  3500011 ScaDFX=  1.000000  1.000000  1.000000  1.000000
 FoFCou: FMM=F IPFlag=           0 FMFlag=      100000 FMFlg1=           0
         NFxFlg=           0 DoJE=T BraDBF=F KetDBF=T FulRan=T
         wScrn=  0.000000 ICntrl=       500 IOpCl=  0 I1Cent=   200000004 NGrid=           0
         NMat0=    1 NMatS0=      1 NMatT0=    0 NMatD0=    1 NMtDS0=    0 NMtDT0=    0
 Petite list used in FoFCou.
 Requested convergence on RMS density matrix=1.00D-08 within 128 cycles.
 Requested convergence on MAX density matrix=1.00D-06.
 Requested convergence on             energy=1.00D-06.
 No special actions if energy rises.
 SCF Done:  E(RLC-B+HF-LYP) =  -439.014045703     A.U. after   15 cycles
            NFock= 15  Conv=0.77D-08     -V/T= 2.0093
 DoSCS=F DFT=T ScalE2(SS,OS)=  1.000000  1.000000
 ExpMin= 4.38D-02 ExpMax= 5.48D+03 ExpMxC= 8.25D+02 IAcc=3 IRadAn=         5 AccDes= 0.00D+00
 HarFok:  IExCor=  205 AccDes= 0.00D+00 IRadAn=         5 IDoV=-2 UseB2=F ITyADJ=14
 ICtDFT= 12500011 ScaDFX=  1.000000  1.000000  1.000000  1.000000
 Range of M.O.s used for correlation:    11   208
 NBasis=   208 NAE=    36 NBE=    36 NFC=    10 NFV=     0
 NROrb=    198 NOA=    26 NOB=    26 NVA=   172 NVB=   172

 **** Warning!!: The largest alpha MO coefficient is  0.19774389D+03

 Orbital symmetries:
       Occupied  (A) (A) (A) (A) (A) (A) (A) (A) (A) (A) (A) (A)
                 (A) (A) (A) (A) (A) (A) (A) (A) (A) (A) (A) (A)
                 (A) (A) (A) (A) (A) (A) (A) (A) (A) (A) (A) (A)
       Virtual   (A) (A) (A) (A) (A) (A) (A) (A) (A) (A) (A) (A)
                 (A) (A) (A) (A) (A) (A) (A) (A) (A) (A) (A) (A)
                 (A) (A) (A) (A) (A) (A) (A) (A) (A) (A) (A) (A)
                 (A) (A) (A) (A) (A) (A) (A) (A) (A) (A) (A) (A)
                 (A) (A) (A) (A) (A) (A) (A) (A) (A) (A) (A) (A)
                 (A) (A) (A) (A) (A) (A) (A) (A) (A) (A) (A) (A)
                 (A) (A) (A) (A) (A) (A) (A) (A) (A) (A) (A) (A)
                 (A) (A) (A) (A) (A) (A) (A) (A) (A) (A) (A) (A)
                 (A) (A) (A) (A) (A) (A) (A) (A) (A) (A) (A) (A)
                 (A) (A) (A) (A) (A) (A) (A) (A) (A) (A) (A) (A)
                 (A) (A) (A) (A) (A) (A) (A) (A) (A) (A) (A) (A)
                 (A) (A) (A) (A) (A) (A) (A) (A) (A) (A) (A) (A)
                 (A) (A) (A) (A) (A) (A) (A) (A) (A) (A) (A) (A)
                 (A) (A) (A) (A) (A) (A) (A) (A) (A) (A) (A) (A)
                 (A) (A) (A) (A)
 Generating guess from densities on rwf.
 Convergence on wavefunction:    0.000001000000000
 Iteration     1 Dimension     6 NMult     0 NNew      6
 CISAX will form     6 AO SS matrices at one time.
 Iteration     2 Dimension    12 NMult     6 NNew      6
 Iteration     3 Dimension    18 NMult    12 NNew      6
 Iteration     4 Dimension    24 NMult    18 NNew      6
 Iteration     5 Dimension    30 NMult    24 NNew      6
 Iteration     6 Dimension    36 NMult    30 NNew      6
 Iteration     7 Dimension    42 NMult    36 NNew      6
 Iteration     8 Dimension    48 NMult    42 NNew      6
 Iteration     9 Dimension    54 NMult    48 NNew      6
 Iteration    10 Dimension    60 NMult    54 NNew      6
 Iteration    11 Dimension    66 NMult    60 NNew      6
 Iteration    12 Dimension    68 NMult    66 NNew      2
 Iteration    13 Dimension    70 NMult    68 NNew      2
 Iteration    14 Dimension    72 NMult    70 NNew      2
 Iteration    15 Dimension    74 NMult    72 NNew      2
 Iteration    16 Dimension    76 NMult    74 NNew      2
 Iteration    17 Dimension    78 NMult    76 NNew      2
 Iteration    18 Dimension    80 NMult    78 NNew      2
 ***********************************************************************
 Excited states from <AA,BB:AA,BB> singles matrix:
 ***********************************************************************
 
 Ground to excited state transition densities written to RWF  633
 Ground to excited state transition electric dipole moments (Au):
       state          X           Y           Z        Dip. S.      Osc.
         1        -0.0376     -0.7269     -0.0001      0.5297      0.0643
         2         0.9233     -0.0471      0.0001      0.8548      0.1091
         3         0.0001     -0.0000     -0.2117      0.0448      0.0065
 Ground to excited state transition velocity dipole moments (Au):
       state          X           Y           Z        Dip. S.      Osc.
         1         0.0123      0.1351      0.0000      0.0184      0.0673
         2        -0.1721     -0.0028     -0.0000      0.0296      0.1031
         3        -0.0000      0.0000      0.0382      0.0015      0.0045
 Ground to excited state transition magnetic dipole moments (Au):
       state          X           Y           Z
         1        -0.0000     -0.0000      0.4310
         2        -0.0000      0.0001      0.0340
         3         0.1275      0.0821     -0.0001
 Ground to excited state transition velocity quadrupole moments (Au):
       state          XX          YY          ZZ          XY          XZ          YZ
         1         0.0062     -0.0199      0.0151      0.1322      0.0000     -0.0000
         2        -0.3041      0.0063      0.0293     -0.2907     -0.0000     -0.0001
         3        -0.0001      0.0000      0.0000      0.0000     -0.1104      0.0979
 <0|del|b> * <b|rxdel|0> + <0|del|b> * <b|delr+rdel|0>
 Rotatory Strengths (R) in cgs (10**-40 erg-esu-cm/Gauss)
       state          XX          YY          ZZ    R(velocity)    E-M Angle
         1        -0.0023      0.0078     -0.0063     -0.0003       90.00
         2         0.0109      0.0057     -0.0174     -0.0003       90.00
         3        -0.0007     -0.0105     -0.0011     -0.0041       90.00
 1/2[<0|r|b>*<b|rxdel|0> + (<0|rxdel|b>*<b|r|0>)*]
 Rotatory Strengths (R) in cgs (10**-40 erg-esu-cm/Gauss)
       state          XX          YY          ZZ     R(length)
         1        -0.0003     -0.0246      0.0218     -0.0010
         2         0.0030      0.0021     -0.0029      0.0007
         3        -0.0066      0.0015     -0.0102     -0.0051
  1/2[<0|del|b>*<b|r|0> + (<0|r|b>*<b|del|0>)*] (Au)
       state          X           Y           Z        Dip. S.   Osc.(frdel)
         1        -0.0005     -0.0982     -0.0000      0.0986      0.0658
         2        -0.1589      0.0001     -0.0000      0.1588      0.1058
         3        -0.0000     -0.0000     -0.0081      0.0081      0.0054

 Excitation energies and oscillator strengths:
 
 Excited State   1:      Singlet-A      4.9573 eV  250.11 nm  f=0.0643  <S**2>=0.000
      35 -> 38        -0.50692
      35 -> 43         0.15864
      36 -> 38        -0.33429
      36 -> 43        -0.20008
      36 -> 45        -0.15275
 This state for optimization and/or second-order correction.
 Total Energy, E(TD-HF/TD-DFT) =  -438.831869520    
 Copying the excited state density for this state as the 1-particle RhoCI density.
 
 Excited State   2:      Singlet-A      5.2109 eV  237.93 nm  f=0.1091  <S**2>=0.000
      35 -> 38        -0.29791
      35 -> 43        -0.16187
      35 -> 45        -0.13001
      36 -> 38         0.54504
      36 -> 43        -0.21031
 
 Excited State   3:      Singlet-A      5.8859 eV  210.65 nm  f=0.0065  <S**2>=0.000
      36 -> 37         0.57896
      36 -> 40        -0.21683
      36 -> 41        -0.10980
      36 -> 44        -0.20474
      36 -> 46         0.12181
 SavETr:  write IOETrn=   770 NScale= 10 NData=  16 NLR=1 NState=    3 LETran=      64.
          IDoAtm=1111111111111111111
          Differentiating once with respect to electric field.
                with respect to dipole field.
          Differentiating once with respect to nuclear coordinates.
          There are     1 degrees of freedom in the 1st order CPHF.  IDoFFX=0 NUNeed=     1.
 LinEq1:  Iter=  0 NonCon=     1 RMS=3.42D-03 Max=6.91D-02 NDo=     1
 AX will form     1 AO Fock derivatives at one time.
 LinEq1:  Iter=  1 NonCon=     1 RMS=1.33D-03 Max=4.12D-02 NDo=     1
 LinEq1:  Iter=  2 NonCon=     1 RMS=6.05D-04 Max=1.92D-02 NDo=     1
 LinEq1:  Iter=  3 NonCon=     1 RMS=3.13D-04 Max=1.11D-02 NDo=     1
 LinEq1:  Iter=  4 NonCon=     1 RMS=1.08D-04 Max=2.34D-03 NDo=     1
 LinEq1:  Iter=  5 NonCon=     1 RMS=4.78D-05 Max=1.55D-03 NDo=     1
 LinEq1:  Iter=  6 NonCon=     1 RMS=2.12D-05 Max=6.43D-04 NDo=     1
 LinEq1:  Iter=  7 NonCon=     1 RMS=7.48D-06 Max=1.74D-04 NDo=     1
 LinEq1:  Iter=  8 NonCon=     1 RMS=3.77D-06 Max=1.05D-04 NDo=     1
 LinEq1:  Iter=  9 NonCon=     1 RMS=1.25D-06 Max=2.52D-05 NDo=     1
 LinEq1:  Iter= 10 NonCon=     1 RMS=6.49D-07 Max=1.49D-05 NDo=     1
 LinEq1:  Iter= 11 NonCon=     1 RMS=2.29D-07 Max=4.84D-06 NDo=     1
 LinEq1:  Iter= 12 NonCon=     1 RMS=1.02D-07 Max=1.79D-06 NDo=     1
 LinEq1:  Iter= 13 NonCon=     1 RMS=3.40D-08 Max=5.75D-07 NDo=     1
 LinEq1:  Iter= 14 NonCon=     1 RMS=1.21D-08 Max=2.17D-07 NDo=     1
 LinEq1:  Iter= 15 NonCon=     1 RMS=4.69D-09 Max=1.07D-07 NDo=     1
 LinEq1:  Iter= 16 NonCon=     1 RMS=1.30D-09 Max=3.18D-08 NDo=     1
 LinEq1:  Iter= 17 NonCon=     1 RMS=6.03D-10 Max=1.03D-08 NDo=     1
 LinEq1:  Iter= 18 NonCon=     1 RMS=2.01D-10 Max=3.89D-09 NDo=     1
 LinEq1:  Iter= 19 NonCon=     1 RMS=7.22D-11 Max=1.01D-09 NDo=     1
 LinEq1:  Iter= 20 NonCon=     0 RMS=3.50D-11 Max=5.62D-10 NDo=     1
 Linear equations converged to 1.000D-10 1.000D-09 after    20 iterations.
 End of Minotr F.D. properties file   721 does not exist.
 End of Minotr F.D. properties file   722 does not exist.
 End of Minotr F.D. properties file   788 does not exist.
 Calling FoFJK, ICntrl=  10005127 FMM=F ISym2X=0 I1Cent= 0 IOpClX= 0 NMat=1 NMatS=1 NMatT=0.
 ***** Axes restored to original set *****
 -------------------------------------------------------------------
 Center     Atomic                   Forces (Hartrees/Bohr)
 Number     Number              X              Y              Z
 -------------------------------------------------------------------
      1        6           0.007928120    0.006190563    0.000000495
      2        1          -0.000612926   -0.000872390    0.000000385
      3        6          -0.000584239   -0.005889964   -0.000001497
      4        1          -0.000501677    0.000055149    0.000000139
      5        6          -0.003587692    0.001674013    0.000001142
      6        6           0.003150829    0.002919408   -0.000000211
      7        6           0.000124314   -0.008549960   -0.000000540
      8        6          -0.000783015    0.005984473    0.000000507
      9        6          -0.002281497   -0.003483001   -0.000001379
     10        6           0.011387490    0.000651890    0.000000724
     11        1          -0.001355671   -0.000725352   -0.000000023
     12        1           0.000048584    0.000555695    0.000000059
     13        1           0.000241985    0.000601970    0.000000045
     14        1           0.000560001    0.000519618    0.000000920
     15        7          -0.014134150    0.000536358    0.000000849
     16        1           0.000237340    0.000336263   -0.000000483
     17        8           0.002165850   -0.005767146   -0.000010002
     18        1          -0.001001523    0.002630933   -0.000418027
     19        1          -0.001002125    0.002631481    0.000426897
 -------------------------------------------------------------------
 Cartesian Forces:  Max     0.014134150 RMS     0.003471136

 GradGradGradGradGradGradGradGradGradGradGradGradGradGradGradGradGradGrad
 Berny optimization.
 Using GEDIIS/GDIIS optimizer.
 FormGI is forming the generalized inverse of G from B-inverse, IUseBI=4.
 Internal  Forces:  Max     0.008796613 RMS     0.001553665
 Search for a local minimum.
 Step number   2 out of a maximum of  106
 All quantities printed in internal units (Hartrees-Bohrs-Radians)
 Mixed Optimization -- RFO/linear search
 Update second derivatives using D2CorX and points    1    2
 DE= -4.81D-03 DEPred=-4.32D-03 R= 1.11D+00
 TightC=F SS=  1.41D+00  RLast= 1.54D-01 DXNew= 5.0454D-01 4.6198D-01
 Trust test= 1.11D+00 RLast= 1.54D-01 DXMaxT set to 4.62D-01
 ITU=  1  0
 Use linear search instead of GDIIS.
     Eigenvalues ---    0.00230   0.00230   0.00230   0.00231   0.01593
     Eigenvalues ---    0.01849   0.01940   0.02009   0.02058   0.02108
     Eigenvalues ---    0.02128   0.02146   0.02167   0.02206   0.02233
     Eigenvalues ---    0.02245   0.02331   0.05550   0.14708   0.16000
     Eigenvalues ---    0.16000   0.16000   0.16000   0.16000   0.16000
     Eigenvalues ---    0.16000   0.16132   0.20658   0.22089   0.22784
     Eigenvalues ---    0.24339   0.24512   0.35734   0.35739   0.35797
     Eigenvalues ---    0.35847   0.36418   0.36475   0.36984   0.38524
     Eigenvalues ---    0.40221   0.42859   0.45558   0.46068   0.47074
     Eigenvalues ---    0.47328   0.47575   0.49643   0.52744   0.52930
     Eigenvalues ---    0.54110
 RFO step:  Lambda=-7.95001521D-04 EMin= 2.29684924D-03
 Quartic linear search produced a step of  0.17476.
 Iteration  1 RMS(Cart)=  0.07533283 RMS(Int)=  0.00219534
 Iteration  2 RMS(Cart)=  0.00423444 RMS(Int)=  0.00007354
 Iteration  3 RMS(Cart)=  0.00000663 RMS(Int)=  0.00007340
 Iteration  4 RMS(Cart)=  0.00000000 RMS(Int)=  0.00007340
 Variable       Old X    -DE/DX   Delta X   Delta X   Delta X     New X
                                 (Linear)    (Quad)   (Total)
    R1        2.04151  -0.00051   0.00127  -0.00229  -0.00102   2.04050
    R2        2.56863  -0.00164  -0.00183  -0.00193  -0.00373   2.56491
    R3        2.63438   0.00470   0.00495   0.00900   0.01397   2.64836
    R4        2.04293  -0.00012   0.00152  -0.00115   0.00038   2.04331
    R5        2.70115   0.00023  -0.00141   0.00171   0.00030   2.70145
    R6        2.64093  -0.00107  -0.00125  -0.00208  -0.00332   2.63761
    R7        2.72907  -0.00076   0.00860  -0.00688   0.00169   2.73076
    R8        2.67625   0.00166   0.01102  -0.00177   0.00925   2.68550
    R9        2.04968  -0.00068   0.00083  -0.00263  -0.00180   2.04788
   R10        2.66710  -0.00583   0.00185  -0.01656  -0.01471   2.65238
   R11        2.05050   0.00022   0.00117   0.00012   0.00129   2.05179
   R12        2.66073   0.00022   0.00782  -0.00344   0.00437   2.66509
   R13        2.04879  -0.00051   0.00089  -0.00212  -0.00123   2.04756
   R14        2.65753   0.00249   0.00417   0.00445   0.00861   2.66614
   R15        2.04903  -0.00050   0.00070  -0.00199  -0.00129   2.04774
   R16        2.55045  -0.00880  -0.00915  -0.01691  -0.02608   2.52437
   R17        1.92658   0.00028   0.00547  -0.00203   0.00344   1.93002
   R18        3.52525   0.00053   0.00454   0.00877   0.01331   3.53856
   R19        1.83174  -0.00135  -0.00095  -0.00253  -0.00348   1.82827
   R20        1.83174  -0.00136  -0.00095  -0.00253  -0.00348   1.82826
    A1        2.27326   0.00290   0.00088   0.01561   0.01646   2.28972
    A2        2.10626   0.00099   0.00062   0.00182   0.00241   2.10867
    A3        1.90367  -0.00389  -0.00149  -0.01743  -0.01887   1.88480
    A4        2.19861  -0.00049   0.00066  -0.00322  -0.00258   2.19603
    A5        1.87135   0.00199   0.00030   0.01294   0.01327   1.88461
    A6        2.21323  -0.00150  -0.00096  -0.00972  -0.01069   2.20254
    A7        2.34622   0.00177   0.00026   0.00833   0.00861   2.35483
    A8        1.86551  -0.00186   0.00003  -0.00982  -0.00983   1.85567
    A9        2.07146   0.00009  -0.00029   0.00149   0.00122   2.07268
   A10        2.05881  -0.00126  -0.00344  -0.00571  -0.00914   2.04968
   A11        2.10928   0.00205   0.00138   0.01336   0.01473   2.12402
   A12        2.11509  -0.00078   0.00205  -0.00764  -0.00559   2.10949
   A13        2.14090   0.00202   0.00467   0.00687   0.01154   2.15245
   A14        2.07537  -0.00154  -0.00245  -0.00723  -0.00968   2.06569
   A15        2.06691  -0.00048  -0.00221   0.00035  -0.00186   2.06505
   A16        2.10525   0.00020  -0.00172   0.00085  -0.00089   2.10436
   A17        2.08429  -0.00051   0.00012  -0.00305  -0.00292   2.08137
   A18        2.09365   0.00031   0.00160   0.00220   0.00381   2.09745
   A19        2.03335  -0.00102  -0.00312  -0.00365  -0.00680   2.02655
   A20        2.12737   0.00110   0.00262   0.00561   0.00824   2.13562
   A21        2.12246  -0.00008   0.00050  -0.00195  -0.00144   2.12102
   A22        2.15660  -0.00003   0.00390   0.00015   0.00406   2.16065
   A23        1.85781   0.00174  -0.00221   0.00616   0.00391   1.86172
   A24        2.26878  -0.00172  -0.00169  -0.00631  -0.00797   2.26081
   A25        1.92645   0.00201   0.00338   0.00815   0.01152   1.93797
   A26        2.18198  -0.00109  -0.00066  -0.00522  -0.00588   2.17611
   A27        2.17476  -0.00092  -0.00272  -0.00293  -0.00564   2.16911
   A28        2.21719  -0.00152  -0.00448  -0.00905  -0.01395   2.20324
   A29        2.21836  -0.00153  -0.00448  -0.00908  -0.01397   2.20438
   A30        1.84757   0.00305   0.00896   0.01762   0.02617   1.87374
   A31        3.12344  -0.00030  -0.00183  -0.11095  -0.11278   3.01065
   A32        3.14098   0.00000   0.00006   0.00033   0.00040   3.14138
    D1       -0.00000  -0.00000  -0.00000  -0.00000  -0.00000  -0.00001
    D2        3.14158   0.00000  -0.00000   0.00001   0.00001   3.14158
    D3        3.14159   0.00000  -0.00000   0.00000   0.00000  -3.14159
    D4       -0.00002   0.00000  -0.00000   0.00002   0.00002  -0.00000
[...]
      2          1           0        3.533124    0.063487   -0.000245
      3          6           0        1.647248    1.244985    0.000066
      4          1           0        1.969877    2.277115    0.000240
      5          6           0        0.290240    0.786075    0.000057
      6          6           0       -0.959728    1.404496    0.000200
      7          6           0       -2.107801    0.563218    0.000111
      8          6           0       -2.039296   -0.832961   -0.000131
      9          6           0       -0.790368   -1.486905   -0.000304
     10          6           0        0.349664   -0.650252   -0.000204
     11          1           0       -1.067173    2.482525    0.000379
     12          1           0       -3.086011    1.034516    0.000243
     13          1           0       -2.956300   -1.410159   -0.000180
     14          1           0       -0.697609   -2.566406   -0.000445
     15          7           0        1.641903   -0.985787   -0.000333
     16          1           0        1.979359   -1.949267   -0.000582
     17          8           0        2.332841   -3.794712   -0.001718
     18          1           0        2.154432   -4.338968   -0.781333
     19          1           0        2.155094   -4.340318    0.777102
 ---------------------------------------------------------------------
                    Distance matrix (angstroms):
                    1          2          3          4          5
     1  C    0.000000
     2  H    1.078843   0.000000
     3  C    1.357111   2.225414   0.000000
     4  H    2.175735   2.709961   1.081379   0.000000
     5  C    2.257537   3.322413   1.432505   2.245970   0.000000
     6  C    3.638626   4.688712   2.611851   3.056803   1.394584
     7  C    4.584176   5.663017   3.816438   4.423222   2.408374
     8  C    4.605273   5.644066   4.231839   5.074055   2.836902
     9  C    3.640910   4.593071   3.661311   4.667633   2.516774
    10  C    2.257878   3.262489   2.296877   3.345828   1.437555
    11  H    4.223464   5.197545   2.983218   3.043988   2.172674
    12  H    5.613372   6.689981   4.737936   5.206347   3.385379
    13  H    5.636843   6.654641   5.314362   6.153308   3.919625
    14  H    4.168511   4.981510   4.474937   5.529483   3.494993
    15  N    1.404399   2.162797   2.230778   3.279343   2.228562
    16  H    2.159963   2.542708   3.211471   4.226393   3.214844
    17  O    3.953623   4.040591   5.086117   6.082666   5.015559
    18  H    4.573352   4.678942   5.661126   6.664643   5.509251
    19  H    4.573977   4.679394   5.661917   6.665451   5.510116
                    6          7          8          9         10
     6  C    0.000000
     7  C    1.423313   0.000000
     8  C    2.484287   1.397859   0.000000
     9  C    2.896358   2.436932   1.409774   0.000000
    10  C    2.436493   2.740738   2.395937   1.414095   0.000000
    11  H    1.083370   2.183264   3.455064   3.979070   3.438272
    12  H    2.158232   1.085825   2.140814   3.409918   3.826527
    13  H    3.450882   2.148061   1.083537   2.167291   3.392176
    14  H    3.979545   3.432666   2.192021   1.083479   2.183674
    15  N    3.532978   4.057055   3.684370   2.483357   1.335090
    16  H    4.459368   4.797652   4.170818   2.808054   2.084070
    17  O    6.154086   6.221806   5.280867   3.883350   3.717610
    18  H    6.579983   6.542837   5.521749   4.173262   4.180189
    19  H    6.580926   6.543750   5.522549   4.173975   4.180953
                   11         12         13         14         15
    11  H    0.000000
    12  H    2.484438   0.000000
    13  H    4.326868   2.448114   0.000000
    14  H    5.062439   4.321007   2.537438   0.000000
    15  N    4.400941   5.141478   4.617744   2.823416   0.000000
    16  H    5.377931   5.878855   4.965014   2.747184   1.020868
    17  O    7.138894   7.258471   5.801820   3.269918   2.892656
    18  H    7.584364   7.546352   5.942029   3.447594   3.480872
    19  H    7.585347   7.547286   5.942756   3.448080   3.481472
                   16         17         18         19
    16  H    0.000000
    17  O    1.878993   0.000000
    18  H    2.520098   0.967390   0.000000
    19  H    2.520476   0.967389   1.558436   0.000000
 Stoichiometry    C8H9NO
 Framework group  C1[X(C8H9NO)]
 Deg. of freedom    51
 Full point group                 C1      NOp   1
 Largest Abelian subgroup         C1      NOp   1
 Largest concise Abelian subgroup C1      NOp   1
                         Standard orientation:                         
 ---------------------------------------------------------------------
 Center     Atomic      Atomic             Coordinates (Angstroms)
 Number     Number       Type             X           Y           Z
 ---------------------------------------------------------------------
      1          6           0       -1.020086    1.942242   -0.000102
      2          1           0       -1.860917    2.618189   -0.000161
      3          6           0        0.318281    2.167014    0.000054
      4          1           0        0.799196    3.135570    0.000169
      5          6           0        0.980879    0.896961    0.000036
      6          6           0        2.311353    0.478989    0.000191
      7          6           0        2.558579   -0.922689    0.000118
      8          6           0        1.543379   -1.883615   -0.000075
      9          6           0        0.189085   -1.492017   -0.000211
     10          6           0       -0.055532   -0.099240   -0.000150
     11          1           0        3.134613    1.183214    0.000353
     12          1           0        3.591028   -1.258940    0.000216
     13          1           0        1.806390   -2.934747   -0.000126
     14          1           0       -0.624587   -2.207464   -0.000410
     15          7           0       -1.220865    0.552269   -0.000234
     16          1           0       -2.131005    0.089866   -0.000312
     17          8           0       -3.662766   -0.998400    0.000226
     18          1           0       -3.910592   -1.514990    0.779688
     19          1           0       -3.911575   -1.515252   -0.778748
 ---------------------------------------------------------------------
 Rotational constants (GHZ):           1.9974424           1.0111987           0.6735267

 **********************************************************************

            Population analysis using the SCF Density.

 **********************************************************************

 Orbital symmetries:
       Occupied  (A) (A) (A) (A) (A) (A) (A) (A) (A) (A) (A) (A)
                 (A) (A) (A) (A) (A) (A) (A) (A) (A) (A) (A) (A)
                 (A) (A) (A) (A) (A) (A) (A) (A) (A) (A) (A) (A)
       Virtual   (A) (A) (A) (A) (A) (A) (A) (A) (A) (A) (A) (A)
                 (A) (A) (A) (A) (A) (A) (A) (A) (A) (A) (A) (A)
                 (A) (A) (A) (A) (A) (A) (A) (A) (A) (A) (A) (A)
                 (A) (A) (A) (A) (A) (A) (A) (A) (A) (A) (A) (A)
                 (A) (A) (A) (A) (A) (A) (A) (A) (A) (A) (A) (A)
                 (A) (A) (A) (A) (A) (A) (A) (A) (A) (A) (A) (A)
                 (A) (A) (A) (A) (A) (A) (A) (A) (A) (A) (A) (A)
                 (A) (A) (A) (A) (A) (A) (A) (A) (A) (A) (A) (A)
                 (A) (A) (A) (A) (A) (A) (A) (A) (A) (A) (A) (A)
                 (A) (A) (A) (A) (A) (A) (A) (A) (A) (A) (A) (A)
                 (A) (A) (A) (A) (A) (A) (A) (A) (A) (A) (A) (A)
                 (A) (A) (A) (A) (A) (A) (A) (A) (A) (A) (A) (A)
                 (A) (A) (A) (A) (A) (A) (A) (A) (A) (A) (A) (A)
                 (A) (A) (A) (A) (A) (A) (A) (A) (A) (A) (A) (A)
                 (A) (A) (A) (A)
 The electronic state is 1-A.
 Alpha  occ. eigenvalues --  -19.08164 -14.27986 -10.18371 -10.18134 -10.15501
 Alpha  occ. eigenvalues --  -10.15368 -10.15254 -10.14634 -10.14362 -10.13762
 Alpha  occ. eigenvalues --   -1.21285  -1.13969  -0.99618  -0.94163  -0.88051
 Alpha  occ. eigenvalues --   -0.87237  -0.77001  -0.72973  -0.72177  -0.72020
 Alpha  occ. eigenvalues --   -0.67392  -0.61722  -0.60001  -0.58333  -0.55851
 Alpha  occ. eigenvalues --   -0.55825  -0.54043  -0.53469  -0.51497  -0.49665
 Alpha  occ. eigenvalues --   -0.46863  -0.45415  -0.45160  -0.39235  -0.30887
 Alpha  occ. eigenvalues --   -0.29533
 Alpha virt. eigenvalues --    0.04772   0.06322   0.06803   0.07243   0.08594
 Alpha virt. eigenvalues --    0.08712   0.10987   0.11077   0.11124   0.11308
 Alpha virt. eigenvalues --    0.11863   0.11991   0.13856   0.14629   0.14805
 Alpha virt. eigenvalues --    0.15409   0.16352   0.17373   0.17912   0.19539
 Alpha virt. eigenvalues --    0.20220   0.21200   0.21868   0.22046   0.22802
 Alpha virt. eigenvalues --    0.23347   0.24069   0.25311   0.25364   0.26273
 Alpha virt. eigenvalues --    0.26367   0.27773   0.27832   0.28114   0.28203
 Alpha virt. eigenvalues --    0.28573   0.30442   0.31009   0.31416   0.32773
 Alpha virt. eigenvalues --    0.32833   0.33442   0.34212   0.35045   0.35151
 Alpha virt. eigenvalues --    0.35856   0.36113   0.38183   0.39050   0.40888
 Alpha virt. eigenvalues --    0.41732   0.42578   0.43267   0.45517   0.48262
 Alpha virt. eigenvalues --    0.48906   0.50874   0.52031   0.56391   0.59734
 Alpha virt. eigenvalues --    0.64412   0.70962   0.74552   0.79518   0.80442
 Alpha virt. eigenvalues --    0.83198   0.83811   0.84636   0.86189   0.86559
 Alpha virt. eigenvalues --    0.86832   0.87858   0.88822   0.90117   0.91715
 Alpha virt. eigenvalues --    0.93298   0.96183   0.97936   1.02239   1.02672
 Alpha virt. eigenvalues --    1.04091   1.06766   1.07706   1.08657   1.08805
 Alpha virt. eigenvalues --    1.11248   1.11811   1.12898   1.13654   1.16625
 Alpha virt. eigenvalues --    1.19577   1.21381   1.22846   1.24564   1.25665
 Alpha virt. eigenvalues --    1.26546   1.29057   1.29771   1.32121   1.34917
 Alpha virt. eigenvalues --    1.36893   1.38565   1.39612   1.39691   1.45644
 Alpha virt. eigenvalues --    1.49192   1.50621   1.50936   1.54917   1.57177
 Alpha virt. eigenvalues --    1.57437   1.63206   1.63544   1.66166   1.66374
 Alpha virt. eigenvalues --    1.66493   1.71462   1.77152   1.81480   1.82977
 Alpha virt. eigenvalues --    1.87250   1.96301   1.99961   2.03689   2.06271
 Alpha virt. eigenvalues --    2.06922   2.10292   2.13238   2.16238   2.17534
 Alpha virt. eigenvalues --    2.21765   2.22528   2.23570   2.29267   2.31365
 Alpha virt. eigenvalues --    2.32361   2.38066   2.40010   2.40948   2.42179
 Alpha virt. eigenvalues --    2.44470   2.44576   2.47883   2.54720   2.58289
 Alpha virt. eigenvalues --    2.60700   2.71905   2.73794   2.76364   2.78857
 Alpha virt. eigenvalues --    2.81369   2.81601   2.84802   2.89345   2.97181
 Alpha virt. eigenvalues --    3.00067   3.01065   3.13358   3.13697   3.27283
 Alpha virt. eigenvalues --    3.40351   3.57219   4.00608   4.32118   4.38200
 Alpha virt. eigenvalues --    4.42959   4.48159   4.49998   4.55373   4.62116
 Alpha virt. eigenvalues --    4.67624   4.91487
          Condensed to atoms (all electrons):
               1          2          3          4          5          6
     1  C    7.744492   0.394023  -3.592416  -0.092355   4.261267   1.524912
     2  H    0.394023   0.488317  -0.063420  -0.000467   0.003197  -0.016167
     3  C   -3.592416  -0.063420  14.217190   0.449483  -7.450745  -3.635155
     4  H   -0.092355  -0.000467   0.449483   0.498998  -0.107617  -0.132389
     5  C    4.261267   0.003197  -7.450745  -0.107617  20.006147   1.178173
     6  C    1.524912  -0.016167  -3.635155  -0.132389   1.178173  12.388149
     7  C   -0.105454   0.001154   0.176951  -0.002338  -0.528980   0.411543
     8  C    0.256137  -0.000130  -0.393434  -0.002510  -0.470997   0.729143
     9  C   -1.891678   0.013531   3.623785   0.016189  -5.552248  -3.285631
    10  C   -2.694838   0.034023   2.998901   0.165585  -6.648274  -2.845518
    11  H    0.002292  -0.000002  -0.061464   0.001290   0.057579   0.288284
    12  H    0.000327  -0.000000  -0.002847  -0.000001   0.036088  -0.043310
    13  H    0.001671  -0.000000  -0.003087   0.000000  -0.006108   0.028622
    14  H    0.007338   0.000002  -0.005712   0.000001   0.042106  -0.019143
    15  N    0.470024  -0.056090  -0.416035   0.007320   0.415964   0.090862
    16  H   -0.026806  -0.002576   0.011434  -0.000093   0.151284   0.024974
    17  O    0.010339   0.000047   0.007981   0.000005  -0.089208  -0.016352
    18  H   -0.002681  -0.000001   0.001357  -0.000000  -0.001420  -0.000025
    19  H   -0.002679  -0.000001   0.001357  -0.000000  -0.001430  -0.000026
               7          8          9         10         11         12
     1  C   -0.105454   0.256137  -1.891678  -2.694838   0.002292   0.000327
     2  H    0.001154  -0.000130   0.013531   0.034023  -0.000002  -0.000000
     3  C    0.176951  -0.393434   3.623785   2.998901  -0.061464  -0.002847
     4  H   -0.002338  -0.002510   0.016189   0.165585   0.001290  -0.000001
     5  C   -0.528980  -0.470997  -5.552248  -6.648274   0.057579   0.036088
     6  C    0.411543   0.729143  -3.285631  -2.845518   0.288284  -0.043310
     7  C    5.606217   0.524533   0.251431  -0.593629  -0.030219   0.329678
     8  C    0.524533   6.150149  -0.506393  -0.196886   0.017300  -0.039855
     9  C    0.251431  -0.506393  14.632461  -1.046375  -0.040901   0.031012
    10  C   -0.593629  -0.196886  -1.046375  17.469707   0.062491  -0.005196
    11  H   -0.030219   0.017300  -0.040901   0.062491   0.513595  -0.003380
    12  H    0.329678  -0.039855   0.031012  -0.005196  -0.003380   0.525334
    13  H   -0.035102   0.323222  -0.039041   0.035697  -0.000117  -0.004220
    14  H    0.020183   0.011883   0.305786  -0.064432   0.000014  -0.000130
    15  N   -0.016482   0.005697  -0.421223  -0.075467  -0.000323   0.000221
    16  H   -0.004037  -0.013743  -0.126640  -0.066424   0.000004  -0.000000
    17  O    0.003115   0.016372   0.017970   0.077826  -0.000000   0.000000
    18  H    0.000054  -0.003046  -0.001110   0.005335   0.000000  -0.000000
    19  H    0.000054  -0.003036  -0.001085   0.005306   0.000000  -0.000000
              13         14         15         16         17         18
     1  C    0.001671   0.007338   0.470024  -0.026806   0.010339  -0.002681
     2  H   -0.000000   0.000002  -0.056090  -0.002576   0.000047  -0.000001
     3  C   -0.003087  -0.005712  -0.416035   0.011434   0.007981   0.001357
     4  H    0.000000   0.000001   0.007320  -0.000093   0.000005  -0.000000
     5  C   -0.006108   0.042106   0.415964   0.151284  -0.089208  -0.001420
     6  C    0.028622  -0.019143   0.090862   0.024974  -0.016352  -0.000025
     7  C   -0.035102   0.020183  -0.016482  -0.004037   0.003115   0.000054
     8  C    0.323222   0.011883   0.005697  -0.013743   0.016372  -0.003046
     9  C   -0.039041   0.305786  -0.421223  -0.126640   0.017970  -0.001110
    10  C    0.035697  -0.064432  -0.075467  -0.066424   0.077826   0.005335
    11  H   -0.000117   0.000014  -0.000323   0.000004  -0.000000   0.000000
    12  H   -0.004220  -0.000130   0.000221  -0.000000   0.000000  -0.000000
    13  H    0.518508  -0.002843  -0.000456  -0.000002   0.000005   0.000000
    14  H   -0.002843   0.523981  -0.003139   0.001920  -0.002351   0.000027
    15  N   -0.000456  -0.003139   7.345742   0.263855  -0.084213   0.002051
    16  H   -0.000002   0.001920   0.263855   0.297066  -0.014562   0.000372
    17  O    0.000005  -0.002351  -0.084213  -0.014562   8.630062   0.234405
    18  H    0.000000   0.000027   0.002051   0.000372   0.234405   0.278205
    19  H    0.000000   0.000027   0.002055   0.000372   0.234413  -0.021572
              19
     1  C   -0.002679
     2  H   -0.000001
     3  C    0.001357
     4  H   -0.000000
     5  C   -0.001430
     6  C   -0.000026
     7  C    0.000054
     8  C   -0.003036
     9  C   -0.001085
    10  C    0.005306
    11  H    0.000000
    12  H   -0.000000
    13  H    0.000000
    14  H    0.000027
    15  N    0.002055
    16  H    0.000372
    17  O    0.234413
    18  H   -0.021572
    19  H    0.278194
 Mulliken charges:
               1
     1  C   -0.263916
     2  H    0.204561
     3  C    0.135877
     4  H    0.198899
     5  C    0.705222
     6  C   -0.670945
     7  C   -0.008671
     8  C   -0.404407
     9  C    0.020158
    10  C   -0.617833
    11  H    0.193559
    12  H    0.176279
    13  H    0.183250
    14  H    0.184484
    15  N   -0.530363
    16  H    0.503602
    17  O   -1.025855
    18  H    0.508049
    19  H    0.508050
 Sum of Mulliken charges =  -0.00000
 Mulliken charges with hydrogens summed into heavy atoms:
               1
     1  C   -0.059355
     3  C    0.334776
     5  C    0.705222
     6  C   -0.477386
     7  C    0.167608
     8  C   -0.221157
     9  C    0.204641
    10  C   -0.617833
    15  N   -0.026761
    17  O   -0.009756
 Electronic spatial extent (au):  <R**2>=           1645.1474
 Charge=             -0.0000 electrons
 Dipole moment (field-independent basis, Debye):
    X=             -4.1978    Y=             -2.0584    Z=              0.0007  Tot=              4.6753
 Quadrupole moment (field-independent basis, Debye-Ang):
   XX=            -43.4877   YY=            -51.1524   ZZ=            -63.5315
   XY=             10.0923   XZ=             -0.0002   YZ=             -0.0007
 Traceless Quadrupole moment (field-independent basis, Debye-Ang):
   XX=              9.2362   YY=              1.5715   ZZ=            -10.8076
   XY=             10.0923   XZ=             -0.0002   YZ=             -0.0007
 Octapole moment (field-independent basis, Debye-Ang**2):
  XXX=            -71.3531  YYY=            -10.8461  ZZZ=              0.0052  XYY=            -28.2416
  XXY=            -38.8593  XXZ=              0.0008  XZZ=            -24.3975  YZZ=             -6.9049
  YYZ=              0.0018  XYZ=              0.0046
 Hexadecapole moment (field-independent basis, Debye-Ang**3):
 XXXX=          -1101.5818 YYYY=           -715.2609 ZZZZ=            -81.8679 XXXY=            192.6257
 XXXZ=              0.0437 YYYX=             48.3576 YYYZ=              0.0028 ZZZX=             -0.0203
 ZZZY=             -0.0087 XXYY=           -241.2572 XXZZ=           -215.4548 YYZZ=           -158.2700
 XXYZ=             -0.0017 YYXZ=             -0.0011 ZZXY=             30.1938
 N-N= 4.827727205397D+02 E-N=-1.987869602998D+03  KE= 4.349984243595D+02
 1\1\GINC-COMET-01-50\FOpt\RLC-BLYP TD-FC\6-31+G(d)\C8H9N1O1\GFOLEY1\15
 -Jun-2018\0\\# opt td=(root=1) LC-BLYP/6-31+g(d)\\IndoleFixedOptimizat
 ion1WaterMol\\0,1\C,2.4583344824,0.1569187605,-0.0001834825\H,3.533123
 747,0.0634867755,-0.0002454082\C,1.6472479883,1.2449850251,0.000065564
 \H,1.9698766612,2.2771145913,0.000240448\C,0.2902398121,0.7860746188,0
 .0000571272\C,-0.959727721,1.4044963907,0.00020019\C,-2.1078011417,0.5
 632184485,0.0001114153\C,-2.0392958244,-0.8329610742,-0.0001310126\C,-
 0.7903681543,-1.4869053865,-0.0003038276\C,0.3496642163,-0.6502516677,
 -0.0002039204\H,-1.0671732702,2.482524768,0.000378953\H,-3.0860108049,
 1.0345160735,0.0002429438\H,-2.9562998663,-1.4101586719,-0.0001797423\
 H,-0.6976092872,-2.5664064741,-0.0004448283\N,1.6419030101,-0.98578689
 49,-0.0003334672\H,1.9793587153,-1.9492674213,-0.0005818488\O,2.332841
 3779,-3.794711743,-0.0017182388\H,2.1544321423,-4.338968118,-0.7813331
 88\H,2.1550939173,-4.3403180003,0.7771023231\\Version=ES64L-G16RevB.01
 \State=1-A\HF=-439.0121919\RMSD=5.528e-09\RMSF=1.795e-05\Dipole=0.8098
 223,-1.5612592,-0.0007753\PG=C01 [X(C8H9N1O1)]\\@


 WISDOM IS KNOWING WHAT TO DO,
 SKILL IS KNOWING HOW TO DO IT,
 AND VIRTUE IS NOT DOING IT.
 Job cpu time:       0 days  6 hours 40 minutes  0.5 seconds.
 Elapsed time:       0 days  1 hours 40 minutes  0.4 seconds.
 File lengths (MBytes):  RWF=    261 Int=      0 D2E=      0 Chk=     10 Scr=      1
 Normal termination of Gaussian 16 at Fri Jun 15 12:30:27 2018.
