 Entering Link 1 = C:\G09W\l1.exe PID=      4272.
  
 Copyright (c) 1988,1990,1992,1993,1995,1998,2003,2009,2013,
            Gaussian, Inc.  All Rights Reserved.
  
 This is part of the Gaussian(R) 09 program.  It is based on
 the Gaussian(R) 03 system (copyright 2003, Gaussian, Inc.),
 the Gaussian(R) 98 system (copyright 1998, Gaussian, Inc.),
 the Gaussian(R) 94 system (copyright 1995, Gaussian, Inc.),
 the Gaussian 92(TM) system (copyright 1992, Gaussian, Inc.),
 the Gaussian 90(TM) system (copyright 1990, Gaussian, Inc.),
 the Gaussian 88(TM) system (copyright 1988, Gaussian, Inc.),
 the Gaussian 86(TM) system (copyright 1986, Carnegie Mellon
 University), and the Gaussian 82(TM) system (copyright 1983,
 Carnegie Mellon University). Gaussian is a federally registered
 trademark of Gaussian, Inc.
  
 This software contains proprietary and confidential information,
 including trade secrets, belonging to Gaussian, Inc.
  
 This software is provided under written license and may be
 used, copied, transmitted, or stored only in accord with that
 written license.
  
 The following legend is applicable only to US Government
 contracts under FAR:
  
                    RESTRICTED RIGHTS LEGEND
  
 Use, reproduction and disclosure by the US Government is
 subject to restrictions as set forth in subparagraphs (a)
 and (c) of the Commercial Computer Software - Restricted
 Rights clause in FAR 52.227-19.
  
 Gaussian, Inc.
 340 Quinnipiac St., Bldg. 40, Wallingford CT 06492
  
  
 ---------------------------------------------------------------
 Warning -- This program may not be used in any manner that
 competes with the business of Gaussian, Inc. or will provide
 assistance to any competitor of Gaussian, Inc.  The licensee
 of this program is prohibited from giving any competitor of
 Gaussian, Inc. access to this program.  By using this program,
 the user acknowledges that Gaussian, Inc. is engaged in the
 business of creating and licensing software in the field of
 computational chemistry and represents and warrants to the
 licensee that it is not a competitor of Gaussian, Inc. and that
 it will not use this program in any manner prohibited above.
 ---------------------------------------------------------------
  

 Cite this work as:
 Gaussian 09, Revision D.01,
 M. J. Frisch, G. W. Trucks, H. B. Schlegel, G. E. Scuseria, 
 M. A. Robb, J. R. Cheeseman, G. Scalmani, V. Barone, B. Mennucci, 
 G. A. Petersson, H. Nakatsuji, M. Caricato, X. Li, H. P. Hratchian, 
 A. F. Izmaylov, J. Bloino, G. Zheng, J. L. Sonnenberg, M. Hada, 
 M. Ehara, K. Toyota, R. Fukuda, J. Hasegawa, M. Ishida, T. Nakajima, 
 Y. Honda, O. Kitao, H. Nakai, T. Vreven, J. A. Montgomery, Jr., 
 J. E. Peralta, F. Ogliaro, M. Bearpark, J. J. Heyd, E. Brothers, 
 K. N. Kudin, V. N. Staroverov, T. Keith, R. Kobayashi, J. Normand, 
 K. Raghavachari, A. Rendell, J. C. Burant, S. S. Iyengar, J. Tomasi, 
 M. Cossi, N. Rega, J. M. Millam, M. Klene, J. E. Knox, J. B. Cross, 
 V. Bakken, C. Adamo, J. Jaramillo, R. Gomperts, R. E. Stratmann, 
 O. Yazyev, A. J. Austin, R. Cammi, C. Pomelli, J. W. Ochterski, 
 R. L. Martin, K. Morokuma, V. G. Zakrzewski, G. A. Voth, 
 P. Salvador, J. J. Dannenberg, S. Dapprich, A. D. Daniels, 
 O. Farkas, J. B. Foresman, J. V. Ortiz, J. Cioslowski, 
 and D. J. Fox, Gaussian, Inc., Wallingford CT, 2013.
 
 ******************************************
 Gaussian 09:  EM64W-G09RevD.01 13-Apr-2013
                04-Nov-2015 
 ******************************************
 %chk=1v7_2.chk
 -------------------------------------------------
 #p TD=(nstates=6, singlets) wb97xd/6-31+G(d) Scan
 -------------------------------------------------
 1/38=1,60=1/1,8;
 2/12=2,17=6,18=5,29=3,40=1/2;
 3/5=1,6=6,7=11,11=9,16=1,25=1,30=1,74=-58/1,2,8,3;
 4//1;
 5/5=2,38=5/2;
 8/6=1,10=2,108=6/1;
 9/41=6,42=1,48=1,70=2/14;
 6/7=2,8=2,9=2,10=2,18=1/1;
 1/60=1/8(1);
 99/9=1/99;
 2/29=3/2;
 3/5=1,6=6,7=11,11=9,16=1,25=1,30=1,74=-58/1,2,8,3;
 4/5=5,16=3,69=1/1;
 5/5=2,38=5/2;
 8/6=1,10=2,108=6/1;
 9/41=6,42=1,48=1,49=4,70=2/14;
 1/60=1/8(-6);
 99/9=1/99;
 Leave Link    1 at Wed Nov 04 21:28:37 2015, MaxMem=           0 cpu:         0.0
 (Enter C:\G09W\l101.exe)
 ------------------------------------------------------------------
 indole relaxed optimization starting from S0 opt and optimizing S2
 ------------------------------------------------------------------
 Symbolic Z-matrix:
 Charge =  0 Multiplicity = 1
 C
 C                    1    B1
 C                    2    B2       1    A2
 C                    1    B3       2    A3       3    D3       0
 C                    4    B4       1    A4       2    D4       0
 C                    5    B5       4    A5       1    D5       0
 C                    3    B6       2    A6       1    D6       0
 C                    7    B7       3    A7       2    D7       0
 N                    6    B8       5    A8       4    D8       0
 H                    9    B9       6    A9       5    D9       0
 H                    1    B10      2    A10      3    D10      0
 H                    2    B11      1    A11      3    D11      0
 H                    4    B12      1    A12      2    D12      0
 H                    5    B13      4    A13      1    D13      0
 H                    7    B14      3    A14      2    D14      0
 H                    8    B15      7    A15      3    D15      0
       Variables:
  B1                    1.365  Scan 10    0.001  
  B2                    1.40443                  
  A2                  119.06897                  
  B3                    1.40975                  
  A3                  121.0656                   
  D3                    0.                       
  B4                    1.38544                  
  A4                  121.21218                  
  D4                  359.99995                  
  B5                    1.39846                  
  A5                  117.42644                  
  D5                    0.00005                  
  B6                    1.43749                  
  A6                  134.26655                  
  D6                  180.00015                  
  B7                    1.355  Scan 10    0.001  
  A7                  106.91711                  
  D7                  180.00028                  
  B8                    1.37732                  
  A8                  130.32223                  
  D8                  179.99989                  
  B9                    1.00658                  
  A9                  125.47355                  
  D9                  359.99992                  
  B10                   1.08624                  
  A10                 119.72205                  
  D10                 179.99989                  
  B11                   1.08676                  
  A11                 120.55611                  
  D11                 180.00011                  
  B12                   1.0863                   
  A12                 119.36875                  
  D12                 180.                       
  B13                   1.0868                   
  A13                 121.13514                  
  D13                 179.99999                  
  B14                   1.08122                  
  A14                 127.12293                  
  D14                   0.00005                  
  B15                   1.08122                  
  A15                 130.03307                  
  D15                 179.99976                  
 
 NAtoms=     16 NQM=       16 NQMF=       0 NMMI=      0 NMMIF=      0
                NMic=       0 NMicF=      0.
                    Isotopes and Nuclear Properties:
 (Nuclear quadrupole moments (NQMom) in fm**2, nuclear magnetic moments (NMagM)
  in nuclear magnetons)

  Atom         1           2           3           4           5           6           7           8           9          10
 IAtWgt=          12          12          12          12          12          12          12          12          14           1
 AtmWgt=  12.0000000  12.0000000  12.0000000  12.0000000  12.0000000  12.0000000  12.0000000  12.0000000  14.0030740   1.0078250
 NucSpn=           0           0           0           0           0           0           0           0           2           1
 AtZEff=   0.0000000   0.0000000   0.0000000   0.0000000   0.0000000   0.0000000   0.0000000   0.0000000   0.0000000   0.0000000
 NQMom=    0.0000000   0.0000000   0.0000000   0.0000000   0.0000000   0.0000000   0.0000000   0.0000000   2.0440000   0.0000000
 NMagM=    0.0000000   0.0000000   0.0000000   0.0000000   0.0000000   0.0000000   0.0000000   0.0000000   0.4037610   2.7928460
 AtZNuc=   6.0000000   6.0000000   6.0000000   6.0000000   6.0000000   6.0000000   6.0000000   6.0000000   7.0000000   1.0000000

  Atom        11          12          13          14          15          16
 IAtWgt=           1           1           1           1           1           1
 AtmWgt=   1.0078250   1.0078250   1.0078250   1.0078250   1.0078250   1.0078250
 NucSpn=           1           1           1           1           1           1
 AtZEff=   0.0000000   0.0000000   0.0000000   0.0000000   0.0000000   0.0000000
 NQMom=    0.0000000   0.0000000   0.0000000   0.0000000   0.0000000   0.0000000
 NMagM=    2.7928460   2.7928460   2.7928460   2.7928460   2.7928460   2.7928460
 AtZNuc=   1.0000000   1.0000000   1.0000000   1.0000000   1.0000000   1.0000000
 Leave Link  101 at Wed Nov 04 21:28:37 2015, MaxMem=    33554432 cpu:         0.0
 (Enter C:\G09W\l108.exe)
 Scan the potential surface.
 Variable   Value     No. Steps Step-Size
 -------- ----------- --------- ---------
     1       1.365000      10      0.0010
    16       1.355000      10      0.0010
 A total of    121 points will be computed.
 Leave Link  108 at Wed Nov 04 21:28:37 2015, MaxMem=    33554432 cpu:         0.0
 (Enter C:\G09W\l202.exe)
 ---------------------------------------------------------------------------------------------------
                            Z-MATRIX (ANGSTROMS AND DEGREES)
   CD    Cent   Atom    N1       Length/X        N2       Alpha/Y        N3        Beta/Z          J
 ---------------------------------------------------------------------------------------------------
      1      1  C 
      2      2  C        1   1.365000(     1)
      3      3  C        2   1.404430(     2)      1  119.069(    16)
      4      4  C        1   1.409750(     3)      2  121.066(    17)      3    0.000(    30)      0
      5      5  C        4   1.385440(     4)      1  121.212(    18)      2  360.000(    31)      0
      6      6  C        5   1.398460(     5)      4  117.426(    19)      1    0.000(    32)      0
      7      7  C        3   1.437490(     6)      2  134.267(    20)      1  180.000(    33)      0
      8      8  C        7   1.355000(     7)      3  106.917(    21)      2  180.000(    34)      0
      9      9  N        6   1.377320(     8)      5  130.322(    22)      4  180.000(    35)      0
     10     10  H        9   1.006580(     9)      6  125.474(    23)      5  360.000(    36)      0
     11     11  H        1   1.086240(    10)      2  119.722(    24)      3  180.000(    37)      0
     12     12  H        2   1.086760(    11)      1  120.556(    25)      3  180.000(    38)      0
     13     13  H        4   1.086300(    12)      1  119.369(    26)      2  180.000(    39)      0
     14     14  H        5   1.086800(    13)      4  121.135(    27)      1  180.000(    40)      0
     15     15  H        7   1.081220(    14)      3  127.123(    28)      2    0.000(    41)      0
     16     16  H        8   1.081220(    15)      7  130.033(    29)      3  180.000(    42)      0
 ---------------------------------------------------------------------------------------------------
                         Z-Matrix orientation:                         
 ---------------------------------------------------------------------
 Center     Atomic      Atomic             Coordinates (Angstroms)
 Number     Number       Type             X           Y           Z
 ---------------------------------------------------------------------
      1          6           0        0.000000    0.000000    0.000000
      2          6           0        0.000000    0.000000    1.365000
      3          6           0        1.227522    0.000000    2.047359
      4          6           0        1.207560    0.000000   -0.727458
      5          6           0        2.433969    0.000001   -0.082972
      6          6           0        2.426750    0.000001    1.315470
      7          6           0        1.604357   -0.000003    3.434577
      8          6           0        2.958747    0.000005    3.475236
      9          7           0        3.472228    0.000000    2.212123
     10          1           0        4.449296   -0.000002    1.970170
     11          1           0       -0.943335   -0.000002   -0.538550
     12          1           0       -0.935844   -0.000002    1.917489
     13          1           0        1.175393    0.000000   -1.813282
     14          1           0        3.364142    0.000001   -0.645032
     15          1           0        0.943468   -0.000006    4.290300
     16          1           0        3.629065    0.000010    4.323594
 ---------------------------------------------------------------------
                    Distance matrix (angstroms):
                    1          2          3          4          5
     1  C    0.000000
     2  C    1.365000   0.000000
     3  C    2.387151   1.404430   0.000000
     4  C    1.409750   2.415902   2.774889   0.000000
     5  C    2.435383   2.832107   2.448229   1.385440   0.000000
     6  C    2.760358   2.427256   1.404924   2.379071   1.398460
     7  C    3.790815   2.618609   1.437490   4.180907   3.614056
     8  C    4.564149   3.634182   2.244098   4.552944   3.596698
     9  N    4.117020   3.574071   2.250745   3.710776   2.519015
    10  H    4.865985   4.490263   3.222699   4.217351   2.876966
    11  H    1.086240   2.124473   3.376321   2.159174   3.407893
    12  H    2.133675   1.086760   2.167260   3.404397   3.918862
    13  H    2.160911   3.388661   3.860993   1.086300   2.139623
    14  H    3.425423   3.918888   3.437168   2.158158   1.086800
    15  H    4.392813   3.073681   2.260856   5.024703   4.620292
    16  H    5.644783   4.682242   3.308875   5.601501   4.565750
                    6          7          8          9         10
     6  C    0.000000
     7  C    2.273091   0.000000
     8  C    2.224323   1.355000   0.000000
     9  N    1.377320   2.232338   1.363495   0.000000
    10  H    2.125870   3.199713   2.118244   1.006580   0.000000
    11  H    3.846409   4.719796   5.597922   5.202249   5.947617
    12  H    3.416060   2.958746   4.194569   4.417907   5.385397
    13  H    3.369715   5.265361   5.581109   4.634580   5.003294
    14  H    2.173079   4.442978   4.140164   2.859199   2.831403
    15  H    3.324115   1.081220   2.173862   3.273140   4.204026
    16  H    3.239502   2.211288   1.081220   2.117288   2.492264
                   11         12         13         14         15
    11  H    0.000000
    12  H    2.456051   0.000000
    13  H    2.472640   4.286720   0.000000
    14  H    4.308793   5.005636   2.481014   0.000000
    15  H    5.184383   3.026887   6.107986   5.497015   0.000000
    16  H    6.674375   5.160206   6.609217   4.975684   2.685803
                   16
    16  H    0.000000
 Stoichiometry    C8H7N
 Framework group  C1[X(C8H7N)]
 Deg. of freedom    42
 Full point group                 C1      NOp   1
 Largest Abelian subgroup         C1      NOp   1
 Largest concise Abelian subgroup C1      NOp   1
                         Standard orientation:                         
 ---------------------------------------------------------------------
 Center     Atomic      Atomic             Coordinates (Angstroms)
 Number     Number       Type             X           Y           Z
 ---------------------------------------------------------------------
      1          6           0       -2.150327    0.683623   -0.000001
      2          6           0       -0.997154    1.413977   -0.000001
      3          6           0        0.236109    0.742049    0.000000
      4          6           0       -2.118781   -0.725774    0.000000
      5          6           0       -0.918109   -1.417027    0.000000
      6          6           0        0.259454   -0.662681    0.000000
      7          6           0        1.609681    1.165933    0.000003
      8          6           0        2.368707    0.043479   -0.000004
      9          7           0        1.576351   -1.066156    0.000002
     10          1           0        1.894733   -2.021057    0.000005
     11          1           0       -3.110041    1.192412    0.000000
     12          1           0       -1.031133    2.500205    0.000000
     13          1           0       -3.053313   -1.279578    0.000000
     14          1           0       -0.895250   -2.503587    0.000001
     15          1           0        1.978995    2.182124    0.000006
     16          1           0        3.444071   -0.068896   -0.000008
 ---------------------------------------------------------------------
 Rotational constants (GHZ):      3.9247581      1.6481342      1.1607129
 Leave Link  202 at Wed Nov 04 21:28:37 2015, MaxMem=    33554432 cpu:         0.0
 (Enter C:\G09W\l301.exe)
 Standard basis: 6-31+G(d) (6D, 7F)
 Ernie: Thresh=  0.10000D-02 Tol=  0.10000D-05 Strict=F.
 There are   185 symmetry adapted cartesian basis functions of A   symmetry.
 There are   185 symmetry adapted basis functions of A   symmetry.
   185 basis functions,   316 primitive gaussians,   185 cartesian basis functions
    31 alpha electrons       31 beta electrons
       nuclear repulsion energy       402.0789519646 Hartrees.
 IExCor= 4639 DFT=T Ex+Corr=wB97XD ExCW=0 ScaHFX=  1.000000
 ScaDFX=  1.000000  1.000000  1.000000  1.000000 ScalE2=  1.000000  1.000000
 IRadAn=      0 IRanWt=     -1 IRanGd=            0 ICorTp=0 IEmpDi=121
  HFx wShort=  0.000000 wLong=  0.200000 cFull=  0.222036 cShort=  0.000000 cLong=  0.777964
  DFx wShort=  0.000000 wLong=  0.200000 cFull=  0.000000 cShort=  0.000000 cLong=  1.000000
 NAtoms=   16 NActive=   16 NUniq=   16 SFac= 1.00D+00 NAtFMM=   60 NAOKFM=F Big=F
 Integral buffers will be    131072 words long.
 Raffenetti 1 integral format.
 Two-electron integral symmetry is turned on.
 R6Disp:  Grimme-D2 Dispersion energy=       -0.0074595055 Hartrees.
 Nuclear repulsion after empirical dispersion term =      402.0714924591 Hartrees.
 Leave Link  301 at Wed Nov 04 21:28:37 2015, MaxMem=    33554432 cpu:         0.0
 (Enter C:\G09W\l302.exe)
 NPDir=0 NMtPBC=     1 NCelOv=     1 NCel=       1 NClECP=     1 NCelD=      1
         NCelK=      1 NCelE2=     1 NClLst=     1 CellRange=     0.0.
 One-electron integrals computed using PRISM.
 NBasis=   185 RedAO= T EigKep=  1.26D-06  NBF=   185
 NBsUse=   185 1.00D-06 EigRej= -1.00D+00 NBFU=   185
 Precomputing XC quadrature grid using
 IXCGrd= 4 IRadAn=           0 IRanWt=          -1 IRanGd=           0 AccXCQ= 0.00D+00.
 Generated NRdTot=       0 NPtTot=           0 NUsed=           0 NTot=          32
 NSgBfM=   185   185   185   185   185 MxSgAt=    16 MxSgA2=    16.
 Leave Link  302 at Wed Nov 04 21:28:38 2015, MaxMem=    33554432 cpu:         1.0
 (Enter C:\G09W\l308.exe)
 Leave Link  308 at Wed Nov 04 21:28:38 2015, MaxMem=    33554432 cpu:         0.0
 (Enter C:\G09W\l303.exe)
 DipDrv:  MaxL=1.
 Leave Link  303 at Wed Nov 04 21:28:38 2015, MaxMem=    33554432 cpu:         0.0
 (Enter C:\G09W\l401.exe)
 ExpMin= 4.38D-02 ExpMax= 4.17D+03 ExpMxC= 6.27D+02 IAcc=2 IRadAn=         4 AccDes= 0.00D+00
 Harris functional with IExCor= 4639 and IRadAn=       4 diagonalized for initial guess.
 HarFok:  IExCor= 4639 AccDes= 0.00D+00 IRadAn=         4 IDoV= 1 UseB2=F ITyADJ=14
 ICtDFT=  3500011 ScaDFX=  1.000000  1.000000  1.000000  1.000000
 FoFCou: FMM=F IPFlag=           0 FMFlag=      100000 FMFlg1=           0
         NFxFlg=           0 DoJE=T BraDBF=F KetDBF=T FulRan=T
         wScrn=  0.000000 ICntrl=     500 IOpCl=  0 I1Cent=   200000004 NGrid=           0
         NMat0=    1 NMatS0=      1 NMatT0=    0 NMatD0=    1 NMtDS0=    0 NMtDT0=    0
 Petite list used in FoFCou.
 Harris En= -347.398563410391    
 JPrj=0 DoOrth=F DoCkMO=F.
 Leave Link  401 at Wed Nov 04 21:28:43 2015, MaxMem=    33554432 cpu:         5.0
 (Enter C:\G09W\l502.exe)
 Closed shell SCF:
 Using DIIS extrapolation, IDIIS=  1040.
 Integral symmetry usage will be decided dynamically.
 IVT=      123721 IEndB=      123721 NGot=    33554432 MDV=    33481762
 LenX=    33481762 LenY=    33447096
 Requested convergence on RMS density matrix=1.00D-08 within 128 cycles.
 Requested convergence on MAX density matrix=1.00D-06.
 Requested convergence on             energy=1.00D-06.
 No special actions if energy rises.
 Fock matrices will be formed incrementally for  20 cycles.

 Cycle   1  Pass 1  IDiag  1:
 FoFJK:  IHMeth= 1 ICntrl=       0 DoSepK=T KAlg= 0 I1Cent=   0 FoldK=F
 IRaf=         1 NMat=   1 IRICut=       1 DoRegI=T DoRafI=F ISym2E= 0.
 FoFCou: FMM=F IPFlag=           0 FMFlag=      100000 FMFlg1=           0
         NFxFlg=           0 DoJE=T BraDBF=F KetDBF=F FulRan=T
         wScrn=  0.000000 ICntrl=     500 IOpCl=  0 I1Cent=           0 NGrid=           0
         NMat0=    1 NMatS0=      1 NMatT0=    0 NMatD0=    1 NMtDS0=    0 NMtDT0=    0
 Symmetry not used in FoFCou.
 E= -363.589100919159    
 DIIS: error= 7.49D-02 at cycle   1 NSaved=   1.
 NSaved= 1 IEnMin= 1 EnMin= -363.589100919159     IErMin= 1 ErrMin= 7.49D-02
 ErrMax= 7.49D-02  0.00D+00 EMaxC= 1.00D-01 BMatC= 3.67D-01 BMatP= 3.67D-01
 IDIUse=3 WtCom= 2.51D-01 WtEn= 7.49D-01
 Coeff-Com:  0.100D+01
 Coeff-En:   0.100D+01
 Coeff:      0.100D+01
 Gap=     0.367 Goal=   None    Shift=    0.000
 GapD=    0.367 DampG=1.000 DampE=0.500 DampFc=0.5000 IDamp=-1.
 Damping current iteration by 5.00D-01
 RMSDP=2.04D-02 MaxDP=6.30D-01              OVMax= 1.47D-01

 Cycle   2  Pass 1  IDiag  1:
 RMSU=  9.87D-03    CP:  1.03D+00
 E= -363.641286215994     Delta-E=       -0.052185296835 Rises=F Damp=T
 DIIS: error= 3.85D-02 at cycle   2 NSaved=   2.
 NSaved= 2 IEnMin= 2 EnMin= -363.641286215994     IErMin= 2 ErrMin= 3.85D-02
 ErrMax= 3.85D-02  0.00D+00 EMaxC= 1.00D-01 BMatC= 7.97D-02 BMatP= 3.67D-01
 IDIUse=3 WtCom= 6.15D-01 WtEn= 3.85D-01
 Coeff-Com: -0.452D+00 0.145D+01
 Coeff-En:   0.000D+00 0.100D+01
 Coeff:     -0.278D+00 0.128D+01
 Gap=     0.363 Goal=   None    Shift=    0.000
 RMSDP=1.20D-02 MaxDP=4.07D-01 DE=-5.22D-02 OVMax= 1.39D-01

 Cycle   3  Pass 1  IDiag  1:
 RMSU=  8.64D-03    CP:  9.30D-01  1.17D+00
 E= -363.684571247402     Delta-E=       -0.043285031408 Rises=F Damp=F
 DIIS: error= 1.00D-02 at cycle   3 NSaved=   3.
 NSaved= 3 IEnMin= 3 EnMin= -363.684571247402     IErMin= 3 ErrMin= 1.00D-02
 ErrMax= 1.00D-02  0.00D+00 EMaxC= 1.00D-01 BMatC= 1.94D-02 BMatP= 7.97D-02
 IDIUse=3 WtCom= 9.00D-01 WtEn= 1.00D-01
 Coeff-Com: -0.303D+00 0.624D+00 0.679D+00
 Coeff-En:   0.000D+00 0.000D+00 0.100D+01
 Coeff:     -0.273D+00 0.561D+00 0.711D+00
 Gap=     0.335 Goal=   None    Shift=    0.000
 RMSDP=4.45D-03 MaxDP=1.35D-01 DE=-4.33D-02 OVMax= 5.06D-02

 Cycle   4  Pass 1  IDiag  1:
 RMSU=  2.70D-03    CP:  9.45D-01  1.41D+00  7.32D-01
 E= -363.701996081667     Delta-E=       -0.017424834265 Rises=F Damp=F
 DIIS: error= 1.78D-03 at cycle   4 NSaved=   4.
 NSaved= 4 IEnMin= 4 EnMin= -363.701996081667     IErMin= 4 ErrMin= 1.78D-03
 ErrMax= 1.78D-03  0.00D+00 EMaxC= 1.00D-01 BMatC= 7.09D-04 BMatP= 1.94D-02
 IDIUse=3 WtCom= 9.82D-01 WtEn= 1.78D-02
 Coeff-Com: -0.957D-01 0.196D+00 0.308D+00 0.592D+00
 Coeff-En:   0.000D+00 0.000D+00 0.000D+00 0.100D+01
 Coeff:     -0.940D-01 0.193D+00 0.302D+00 0.599D+00
 Gap=     0.330 Goal=   None    Shift=    0.000
 RMSDP=1.03D-03 MaxDP=3.32D-02 DE=-1.74D-02 OVMax= 7.23D-03

 Cycle   5  Pass 1  IDiag  1:
 RMSU=  4.03D-04    CP:  9.36D-01  1.39D+00  7.96D-01  9.25D-01
 E= -363.702639405930     Delta-E=       -0.000643324263 Rises=F Damp=F
 DIIS: error= 2.66D-04 at cycle   5 NSaved=   5.
 NSaved= 5 IEnMin= 5 EnMin= -363.702639405930     IErMin= 5 ErrMin= 2.66D-04
 ErrMax= 2.66D-04  0.00D+00 EMaxC= 1.00D-01 BMatC= 1.10D-05 BMatP= 7.09D-04
 IDIUse=3 WtCom= 9.97D-01 WtEn= 2.66D-03
 Coeff-Com:  0.161D-01-0.337D-01-0.158D-01 0.864D-01 0.947D+00
 Coeff-En:   0.000D+00 0.000D+00 0.000D+00 0.000D+00 0.100D+01
 Coeff:      0.160D-01-0.337D-01-0.157D-01 0.862D-01 0.947D+00
 Gap=     0.331 Goal=   None    Shift=    0.000
 RMSDP=3.97D-04 MaxDP=1.80D-02 DE=-6.43D-04 OVMax= 2.44D-03

 Cycle   6  Pass 1  IDiag  1:
 RMSU=  1.27D-04    CP:  9.33D-01  1.38D+00  8.09D-01  1.00D+00  1.21D+00
 E= -363.702656373190     Delta-E=       -0.000016967260 Rises=F Damp=F
 DIIS: error= 1.79D-04 at cycle   6 NSaved=   6.
 NSaved= 6 IEnMin= 6 EnMin= -363.702656373190     IErMin= 6 ErrMin= 1.79D-04
 ErrMax= 1.79D-04  0.00D+00 EMaxC= 1.00D-01 BMatC= 4.06D-06 BMatP= 1.10D-05
 IDIUse=3 WtCom= 9.98D-01 WtEn= 1.79D-03
 Coeff-Com:  0.196D-01-0.406D-01-0.440D-01-0.390D-01 0.453D+00 0.651D+00
 Coeff-En:   0.000D+00 0.000D+00 0.000D+00 0.000D+00 0.000D+00 0.100D+01
 Coeff:      0.196D-01-0.406D-01-0.439D-01-0.389D-01 0.453D+00 0.651D+00
 Gap=     0.331 Goal=   None    Shift=    0.000
 RMSDP=9.65D-05 MaxDP=4.05D-03 DE=-1.70D-05 OVMax= 8.07D-04

 Cycle   7  Pass 1  IDiag  1:
 RMSU=  5.71D-05    CP:  9.32D-01  1.38D+00  8.15D-01  1.02D+00  1.25D+00
                    CP:  9.15D-01
 E= -363.702661748081     Delta-E=       -0.000005374891 Rises=F Damp=F
 DIIS: error= 2.91D-05 at cycle   7 NSaved=   7.
 NSaved= 7 IEnMin= 7 EnMin= -363.702661748081     IErMin= 7 ErrMin= 2.91D-05
 ErrMax= 2.91D-05  0.00D+00 EMaxC= 1.00D-01 BMatC= 1.48D-07 BMatP= 4.06D-06
 IDIUse=1 WtCom= 1.00D+00 WtEn= 0.00D+00
 Coeff-Com: -0.194D-04 0.216D-03-0.661D-03-0.131D-01-0.536D-01 0.419D-01
 Coeff-Com:  0.103D+01
 Coeff:     -0.194D-04 0.216D-03-0.661D-03-0.131D-01-0.536D-01 0.419D-01
 Coeff:      0.103D+01
 Gap=     0.331 Goal=   None    Shift=    0.000
 RMSDP=3.55D-05 MaxDP=1.52D-03 DE=-5.37D-06 OVMax= 3.14D-04

 Cycle   8  Pass 1  IDiag  1:
 RMSU=  1.34D-05    CP:  9.32D-01  1.38D+00  8.16D-01  1.02D+00  1.27D+00
                    CP:  9.95D-01  1.20D+00
 E= -363.702662138967     Delta-E=       -0.000000390886 Rises=F Damp=F
 DIIS: error= 1.32D-05 at cycle   8 NSaved=   8.
 NSaved= 8 IEnMin= 8 EnMin= -363.702662138967     IErMin= 8 ErrMin= 1.32D-05
 ErrMax= 1.32D-05  0.00D+00 EMaxC= 1.00D-01 BMatC= 1.94D-08 BMatP= 1.48D-07
 IDIUse=1 WtCom= 1.00D+00 WtEn= 0.00D+00
 Coeff-Com: -0.161D-02 0.339D-02 0.355D-02-0.618D-03-0.547D-01-0.496D-01
 Coeff-Com:  0.283D+00 0.817D+00
 Coeff:     -0.161D-02 0.339D-02 0.355D-02-0.618D-03-0.547D-01-0.496D-01
 Coeff:      0.283D+00 0.817D+00
 Gap=     0.331 Goal=   None    Shift=    0.000
 RMSDP=8.59D-06 MaxDP=4.63D-04 DE=-3.91D-07 OVMax= 1.60D-04

 Cycle   9  Pass 1  IDiag  1:
 RMSU=  3.48D-06    CP:  9.32D-01  1.38D+00  8.16D-01  1.02D+00  1.27D+00
                    CP:  1.00D+00  1.31D+00  1.15D+00
 E= -363.702662183701     Delta-E=       -0.000000044734 Rises=F Damp=F
 DIIS: error= 3.84D-06 at cycle   9 NSaved=   9.
 NSaved= 9 IEnMin= 9 EnMin= -363.702662183701     IErMin= 9 ErrMin= 3.84D-06
 ErrMax= 3.84D-06  0.00D+00 EMaxC= 1.00D-01 BMatC= 4.38D-09 BMatP= 1.94D-08
 IDIUse=1 WtCom= 1.00D+00 WtEn= 0.00D+00
 Coeff-Com: -0.719D-03 0.147D-02 0.177D-02 0.206D-02-0.142D-01-0.286D-01
 Coeff-Com: -0.525D-01 0.334D+00 0.757D+00
 Coeff:     -0.719D-03 0.147D-02 0.177D-02 0.206D-02-0.142D-01-0.286D-01
 Coeff:     -0.525D-01 0.334D+00 0.757D+00
 Gap=     0.331 Goal=   None    Shift=    0.000
 RMSDP=2.60D-06 MaxDP=1.21D-04 DE=-4.47D-08 OVMax= 4.68D-05

 Cycle  10  Pass 1  IDiag  1:
 RMSU=  1.82D-06    CP:  9.32D-01  1.38D+00  8.16D-01  1.02D+00  1.27D+00
                    CP:  1.01D+00  1.31D+00  1.23D+00  1.02D+00
 E= -363.702662191858     Delta-E=       -0.000000008157 Rises=F Damp=F
 DIIS: error= 1.78D-06 at cycle  10 NSaved=  10.
 NSaved=10 IEnMin=10 EnMin= -363.702662191858     IErMin=10 ErrMin= 1.78D-06
 ErrMax= 1.78D-06  0.00D+00 EMaxC= 1.00D-01 BMatC= 2.52D-10 BMatP= 4.38D-09
 IDIUse=1 WtCom= 1.00D+00 WtEn= 0.00D+00
 Coeff-Com:  0.623D-04-0.138D-03-0.121D-03 0.252D-03 0.341D-02 0.141D-03
 Coeff-Com: -0.415D-01-0.163D-01 0.112D+00 0.943D+00
 Coeff:      0.623D-04-0.138D-03-0.121D-03 0.252D-03 0.341D-02 0.141D-03
 Coeff:     -0.415D-01-0.163D-01 0.112D+00 0.943D+00
 Gap=     0.331 Goal=   None    Shift=    0.000
 RMSDP=1.21D-06 MaxDP=4.53D-05 DE=-8.16D-09 OVMax= 2.20D-05

 Cycle  11  Pass 1  IDiag  1:
 RMSU=  5.25D-07    CP:  9.32D-01  1.38D+00  8.16D-01  1.02D+00  1.27D+00
                    CP:  1.00D+00  1.32D+00  1.26D+00  1.17D+00  1.13D+00
 E= -363.702662192630     Delta-E=       -0.000000000772 Rises=F Damp=F
 DIIS: error= 7.84D-07 at cycle  11 NSaved=  11.
 NSaved=11 IEnMin=11 EnMin= -363.702662192630     IErMin=11 ErrMin= 7.84D-07
 ErrMax= 7.84D-07  0.00D+00 EMaxC= 1.00D-01 BMatC= 6.23D-11 BMatP= 2.52D-10
 IDIUse=1 WtCom= 1.00D+00 WtEn= 0.00D+00
 Coeff-Com:  0.118D-03-0.246D-03-0.284D-03-0.213D-03 0.320D-02 0.354D-02
 Coeff-Com: -0.823D-02-0.440D-01-0.618D-01 0.349D+00 0.759D+00
 Coeff:      0.118D-03-0.246D-03-0.284D-03-0.213D-03 0.320D-02 0.354D-02
 Coeff:     -0.823D-02-0.440D-01-0.618D-01 0.349D+00 0.759D+00
 Gap=     0.331 Goal=   None    Shift=    0.000
 RMSDP=3.75D-07 MaxDP=9.06D-06 DE=-7.72D-10 OVMax= 8.94D-06

 Cycle  12  Pass 1  IDiag  1:
 RMSU=  1.98D-07    CP:  9.32D-01  1.38D+00  8.16D-01  1.02D+00  1.27D+00
                    CP:  1.00D+00  1.32D+00  1.27D+00  1.20D+00  1.23D+00
                    CP:  1.19D+00
 E= -363.702662192785     Delta-E=       -0.000000000155 Rises=F Damp=F
 DIIS: error= 2.68D-07 at cycle  12 NSaved=  12.
 NSaved=12 IEnMin=12 EnMin= -363.702662192785     IErMin=12 ErrMin= 2.68D-07
 ErrMax= 2.68D-07  0.00D+00 EMaxC= 1.00D-01 BMatC= 9.03D-12 BMatP= 6.23D-11
 IDIUse=1 WtCom= 1.00D+00 WtEn= 0.00D+00
 Coeff-Com: -0.281D-05 0.709D-05 0.104D-05-0.409D-04-0.125D-03-0.271D-05
 Coeff-Com:  0.536D-02 0.212D-02-0.256D-01-0.149D+00 0.147D+00 0.102D+01
 Coeff:     -0.281D-05 0.709D-05 0.104D-05-0.409D-04-0.125D-03-0.271D-05
 Coeff:      0.536D-02 0.212D-02-0.256D-01-0.149D+00 0.147D+00 0.102D+01
 Gap=     0.331 Goal=   None    Shift=    0.000
 RMSDP=2.03D-07 MaxDP=6.23D-06 DE=-1.55D-10 OVMax= 3.70D-06

 Cycle  13  Pass 1  IDiag  1:
 RMSU=  1.09D-07    CP:  9.32D-01  1.38D+00  8.16D-01  1.02D+00  1.27D+00
                    CP:  1.00D+00  1.31D+00  1.27D+00  1.22D+00  1.28D+00
                    CP:  1.32D+00  1.09D+00
 E= -363.702662192795     Delta-E=       -0.000000000010 Rises=F Damp=F
 DIIS: error= 6.40D-08 at cycle  13 NSaved=  13.
 NSaved=13 IEnMin=13 EnMin= -363.702662192795     IErMin=13 ErrMin= 6.40D-08
 ErrMax= 6.40D-08  0.00D+00 EMaxC= 1.00D-01 BMatC= 6.60D-13 BMatP= 9.03D-12
 IDIUse=1 WtCom= 1.00D+00 WtEn= 0.00D+00
 Coeff-Com: -0.792D-05 0.168D-04 0.169D-04-0.173D-05-0.259D-03-0.279D-03
 Coeff-Com:  0.189D-02 0.436D-02-0.203D-02-0.705D-01-0.277D-01 0.212D+00
 Coeff-Com:  0.883D+00
 Coeff:     -0.792D-05 0.168D-04 0.169D-04-0.173D-05-0.259D-03-0.279D-03
 Coeff:      0.189D-02 0.436D-02-0.203D-02-0.705D-01-0.277D-01 0.212D+00
 Coeff:      0.883D+00
 Gap=     0.331 Goal=   None    Shift=    0.000
 RMSDP=6.66D-08 MaxDP=3.27D-06 DE=-1.03D-11 OVMax= 9.89D-07

 Cycle  14  Pass 1  IDiag  1:
 RMSU=  2.37D-08    CP:  9.32D-01  1.38D+00  8.16D-01  1.02D+00  1.27D+00
                    CP:  1.00D+00  1.31D+00  1.27D+00  1.22D+00  1.28D+00
                    CP:  1.33D+00  1.14D+00  1.23D+00
 E= -363.702662192802     Delta-E=       -0.000000000007 Rises=F Damp=F
 DIIS: error= 2.31D-08 at cycle  14 NSaved=  14.
 NSaved=14 IEnMin=14 EnMin= -363.702662192802     IErMin=14 ErrMin= 2.31D-08
 ErrMax= 2.31D-08  0.00D+00 EMaxC= 1.00D-01 BMatC= 9.96D-14 BMatP= 6.60D-13
 IDIUse=1 WtCom= 1.00D+00 WtEn= 0.00D+00
 Coeff-Com: -0.332D-05 0.677D-05 0.830D-05 0.751D-05-0.795D-04-0.129D-03
 Coeff-Com: -0.254D-03 0.156D-02 0.389D-02 0.871D-03-0.288D-01-0.843D-01
 Coeff-Com:  0.270D+00 0.837D+00
 Coeff:     -0.332D-05 0.677D-05 0.830D-05 0.751D-05-0.795D-04-0.129D-03
 Coeff:     -0.254D-03 0.156D-02 0.389D-02 0.871D-03-0.288D-01-0.843D-01
 Coeff:      0.270D+00 0.837D+00
 Gap=     0.331 Goal=   None    Shift=    0.000
 RMSDP=1.92D-08 MaxDP=1.14D-06 DE=-6.82D-12 OVMax= 3.39D-07

 Cycle  15  Pass 1  IDiag  1:
 RMSU=  8.25D-09    CP:  9.32D-01  1.38D+00  8.16D-01  1.02D+00  1.27D+00
                    CP:  1.00D+00  1.31D+00  1.27D+00  1.22D+00  1.28D+00
                    CP:  1.33D+00  1.15D+00  1.30D+00  1.12D+00
 E= -363.702662192810     Delta-E=       -0.000000000008 Rises=F Damp=F
 DIIS: error= 7.86D-09 at cycle  15 NSaved=  15.
 NSaved=15 IEnMin=15 EnMin= -363.702662192810     IErMin=15 ErrMin= 7.86D-09
 ErrMax= 7.86D-09  0.00D+00 EMaxC= 1.00D-01 BMatC= 7.68D-15 BMatP= 9.96D-14
 IDIUse=1 WtCom= 1.00D+00 WtEn= 0.00D+00
 Coeff-Com:  0.680D-06-0.145D-05-0.138D-05-0.463D-06 0.210D-04 0.141D-04
 Coeff-Com: -0.197D-03-0.255D-03 0.599D-03 0.652D-02-0.259D-03-0.255D-01
 Coeff-Com: -0.705D-01 0.104D+00 0.986D+00
 Coeff:      0.680D-06-0.145D-05-0.138D-05-0.463D-06 0.210D-04 0.141D-04
 Coeff:     -0.197D-03-0.255D-03 0.599D-03 0.652D-02-0.259D-03-0.255D-01
 Coeff:     -0.705D-01 0.104D+00 0.986D+00
 Gap=     0.331 Goal=   None    Shift=    0.000
 RMSDP=6.32D-09 MaxDP=2.40D-07 DE=-7.50D-12 OVMax= 1.10D-07

 SCF Done:  E(RwB97XD) =  -363.702662193     A.U. after   15 cycles
            NFock= 15  Conv=0.63D-08     -V/T= 2.0091
 KE= 3.604214728968D+02 PE=-1.647032697198D+03 EE= 5.208370696490D+02
 Leave Link  502 at Wed Nov 04 21:32:01 2015, MaxMem=    33554432 cpu:       198.0
 (Enter C:\G09W\l801.exe)
 DoSCS=F DFT=T ScalE2(SS,OS)=  1.000000  1.000000
 ExpMin= 4.38D-02 ExpMax= 4.17D+03 ExpMxC= 6.27D+02 IAcc=3 IRadAn=         5 AccDes= 0.00D+00
 HarFok:  IExCor=  205 AccDes= 0.00D+00 IRadAn=         5 IDoV=-2 UseB2=F ITyADJ=14
 ICtDFT= 12500011 ScaDFX=  1.000000  1.000000  1.000000  1.000000
 Largest valence mixing into a core orbital is  6.61D-05
 Largest core mixing into a valence orbital is  1.32D-05
 Range of M.O.s used for correlation:    10   185
 NBasis=   185 NAE=    31 NBE=    31 NFC=     9 NFV=     0
 NROrb=    176 NOA=    22 NOB=    22 NVA=   154 NVB=   154

 **** Warning!!: The largest alpha MO coefficient is  0.18011954D+03

 Leave Link  801 at Wed Nov 04 21:32:02 2015, MaxMem=    33554432 cpu:         1.0
 (Enter C:\G09W\l914.exe)
 RHF ground state
 MDV=    33554432 DFT=T DoStab=F Mixed=T DoRPA=T DoScal=F NonHer=T
 Would need an additional           862200000 words for in-memory AO integral storage.
 Making orbital integer symmetry assigments:
 Orbital symmetries:
       Occupied  (A) (A) (A) (A) (A) (A) (A) (A) (A) (A) (A) (A)
                 (A) (A) (A) (A) (A) (A) (A) (A) (A) (A) (A) (A)
                 (A) (A) (A) (A) (A) (A) (A)
       Virtual   (A) (A) (A) (A) (A) (A) (A) (A) (A) (A) (A) (A)
                 (A) (A) (A) (A) (A) (A) (A) (A) (A) (A) (A) (A)
                 (A) (A) (A) (A) (A) (A) (A) (A) (A) (A) (A) (A)
                 (A) (A) (A) (A) (A) (A) (A) (A) (A) (A) (A) (A)
                 (A) (A) (A) (A) (A) (A) (A) (A) (A) (A) (A) (A)
                 (A) (A) (A) (A) (A) (A) (A) (A) (A) (A) (A) (A)
                 (A) (A) (A) (A) (A) (A) (A) (A) (A) (A) (A) (A)
                 (A) (A) (A) (A) (A) (A) (A) (A) (A) (A) (A) (A)
                 (A) (A) (A) (A) (A) (A) (A) (A) (A) (A) (A) (A)
                 (A) (A) (A) (A) (A) (A) (A) (A) (A) (A) (A) (A)
                 (A) (A) (A) (A) (A) (A) (A) (A) (A) (A) (A) (A)
                 (A) (A) (A) (A) (A) (A) (A) (A) (A) (A) (A) (A)
                 (A) (A) (A) (A) (A) (A) (A) (A) (A) (A)
    24 initial guesses have been made.
 Convergence on wavefunction:    0.001000000000000
 Davidson Disk Diagonalization:  ConvIn= 1.00D-03 SkipCon=T Conv= 1.00D-03.
 Max sub-space:   200 roots to seek:    24 dimension of matrix:         6776
 Iteration     1 Dimension    24 NMult     0 NNew     24
 CISAX will form    24 AO SS matrices at one time.
 NMat=    24 NSing=    24 JSym2X= 0.
 FoFJK:  IHMeth= 1 ICntrl=       0 DoSepK=T KAlg= 0 I1Cent=   0 FoldK=F
 IRaf=         1 NMat=  48 IRICut=       1 DoRegI=T DoRafI=F ISym2E= 0.
 FoFCou: FMM=F IPFlag=           0 FMFlag=      100000 FMFlg1=           0
         NFxFlg=           0 DoJE=F BraDBF=F KetDBF=F FulRan=T
         wScrn=  0.000000 ICntrl=     500 IOpCl=  0 I1Cent=           0 NGrid=           0
         NMat0=   24 NMatS0=     24 NMatT0=    0 NMatD0=   24 NMtDS0=    0 NMtDT0=    0
 Symmetry not used in FoFCou.
 New state      1 was old state      3
 New state      2 was old state      1
 New state      3 was old state      2
 New state      4 was old state      5
 New state      5 was old state      4
 Excitation Energies [eV] at current iteration:
 Root      1 :     5.512258437988803
 Root      2 :     5.646057172758714
 Root      3 :     5.787994003279738
 Root      4 :     6.391696707071546
 Root      5 :     6.527089012553313
 Root      6 :     6.557281075595978
 Root      7 :     7.006492731005669
 Root      8 :     7.041944022878948
 Root      9 :     7.092359648338338
 Root     10 :     7.156157689558795
 Root     11 :     7.188150569152973
 Root     12 :     7.225917874638916
 Root     13 :     7.284377531192894
 Root     14 :     7.526688314588310
 Root     15 :     7.693056114373840
 Root     16 :     7.742803143756805
 Root     17 :     7.784596821143835
 Root     18 :     7.885949473323499
 Root     19 :     7.971096297069140
 Root     20 :     7.978240190036322
 Root     21 :     7.982699461759975
 Root     22 :     8.059746768585020
 Root     23 :     8.236064673048590
 Root     24 :     8.368422242468490
 Iteration     2 Dimension    36 NMult    24 NNew     12
 CISAX will form    12 AO SS matrices at one time.
 NMat=    12 NSing=    12 JSym2X= 0.
 New state      1 was old state      2
 Root      1 not converged, maximum delta is    0.106563089609993
 New state      2 was old state      1
 Root      2 not converged, maximum delta is    0.122054690161876
 Root      3 not converged, maximum delta is    0.052941030323730
 Root      4 not converged, maximum delta is    0.114445249267817
 Root      5 not converged, maximum delta is    0.131827377333218
 Root      6 not converged, maximum delta is    0.140124788018638
 Excitation Energies [eV] at current iteration:
 Root      1 :     5.182504719445790   Change is   -0.463552453312924
 Root      2 :     5.201119734845490   Change is   -0.311138703143313
 Root      3 :     5.652788040488501   Change is   -0.135205962791237
 Root      4 :     6.202050183268056   Change is   -0.189646523803490
 Root      5 :     6.328046007118751   Change is   -0.199043005434562
 Root      6 :     6.375041814383136   Change is   -0.182239261212841
 Iteration     3 Dimension    48 NMult    36 NNew     12
 CISAX will form    12 AO SS matrices at one time.
 NMat=    12 NSing=    12 JSym2X= 0.
 Root      1 not converged, maximum delta is    0.092465077241056
 Root      2 not converged, maximum delta is    0.107340642796842
 Root      3 not converged, maximum delta is    0.006863735836191
 Root      4 not converged, maximum delta is    0.007991425481122
 Root      5 not converged, maximum delta is    0.011550220592112
 Root      6 not converged, maximum delta is    0.013645290098060
 Excitation Energies [eV] at current iteration:
 Root      1 :     5.157799887443197   Change is   -0.024704832002593
 Root      2 :     5.169658648036497   Change is   -0.031461086808993
 Root      3 :     5.649116224022999   Change is   -0.003671816465502
 Root      4 :     6.196672799720323   Change is   -0.005377383547732
 Root      5 :     6.319241311218669   Change is   -0.008804695900083
 Root      6 :     6.367584409387074   Change is   -0.007457404996062
 Iteration     4 Dimension    60 NMult    48 NNew     12
 CISAX will form    12 AO SS matrices at one time.
 NMat=    12 NSing=    12 JSym2X= 0.
 Root      1 not converged, maximum delta is    0.010651046843261
 Root      2 not converged, maximum delta is    0.012271776480002
 Root      3 not converged, maximum delta is    0.001559366230897
 Root      4 not converged, maximum delta is    0.002476036548174
 Root      5 not converged, maximum delta is    0.003837672387876
 Root      6 not converged, maximum delta is    0.005336539521205
 Excitation Energies [eV] at current iteration:
 Root      1 :     5.155442168095458   Change is   -0.002357719347739
 Root      2 :     5.166902021070249   Change is   -0.002756626966248
 Root      3 :     5.648933789162477   Change is   -0.000182434860521
 Root      4 :     6.196414630829811   Change is   -0.000258168890512
 Root      5 :     6.318615558689485   Change is   -0.000625752529183
 Root      6 :     6.366840082589753   Change is   -0.000744326797322
 Iteration     5 Dimension    72 NMult    60 NNew     12
 CISAX will form    12 AO SS matrices at one time.
 NMat=    12 NSing=    12 JSym2X= 0.
 Root      1 not converged, maximum delta is    0.001619938825711
 Root      2 not converged, maximum delta is    0.001341425703918
 Root      3 has converged.
 Root      4 has converged.
 Root      5 not converged, maximum delta is    0.001042210767371
 Root      6 not converged, maximum delta is    0.001997703313076
 Excitation Energies [eV] at current iteration:
 Root      1 :     5.155201896149031   Change is   -0.000240271946428
 Root      2 :     5.166693815007960   Change is   -0.000208206062289
 Root      3 :     5.648922508803602   Change is   -0.000011280358876
 Root      4 :     6.196387330868573   Change is   -0.000027299961239
 Root      5 :     6.318554629799988   Change is   -0.000060928889498
 Root      6 :     6.366748960994781   Change is   -0.000091121594972
 Iteration     6 Dimension    80 NMult    72 NNew      8
 CISAX will form     8 AO SS matrices at one time.
 NMat=     8 NSing=     8 JSym2X= 0.
 Root      1 has converged.
 Root      2 has converged.
 Root      3 has converged.
 Root      4 has converged.
 Root      5 has converged.
 Root      6 has converged.
 Excitation Energies [eV] at current iteration:
 Root      1 :     5.155187848433295   Change is   -0.000014047715736
 Root      2 :     5.166676290868287   Change is   -0.000017524139673
 Root      3 :     5.648922455724414   Change is   -0.000000053079187
 Root      4 :     6.196386790997226   Change is   -0.000000539871346
 Root      5 :     6.318549943041872   Change is   -0.000004686758116
 Root      6 :     6.366742304113254   Change is   -0.000006656881527
 Convergence achieved on expansion vectors.
 ***********************************************************************
 Excited states from <AA,BB:AA,BB> singles matrix:
 ***********************************************************************
 
 1PDM for each excited state written to RWF  633
 Ground to excited state transition densities written to RWF  633
 Ground to excited state transition electric dipole moments (Au):
       state          X           Y           Z        Dip. S.      Osc.
         1        -0.4096      0.6569      0.0000      0.5992      0.0757
         2        -0.7752      0.1170      0.0000      0.6147      0.0778
         3         0.0000      0.0000     -0.1756      0.0308      0.0043
         4         0.0000      0.0000     -0.1620      0.0263      0.0040
         5         0.0000      0.0000     -0.0132      0.0002      0.0000
         6         0.0000      0.0000      0.1576      0.0248      0.0039
 Ground to excited state transition velocity dipole moments (Au):
       state          X           Y           Z        Dip. S.      Osc.
         1         0.0701     -0.1338      0.0000      0.0228      0.0803
         2         0.1388     -0.0249      0.0000      0.0199      0.0698
         3         0.0000      0.0000      0.0281      0.0008      0.0025
         4         0.0000      0.0000      0.0379      0.0014      0.0042
         5         0.0000      0.0000      0.0026      0.0000      0.0000
         6         0.0000      0.0000     -0.0359      0.0013      0.0037
 Ground to excited state transition magnetic dipole moments (Au):
       state          X           Y           Z
         1         0.0000      0.0000      0.2093
         2         0.0000      0.0000      0.0284
         3         0.1499     -0.1323      0.0000
         4         0.1300     -0.3388      0.0000
         5         0.2613     -0.3201      0.0000
         6         0.3123      0.3031      0.0000
 Ground to excited state transition velocity quadrupole moments (Au):
       state          XX          YY          ZZ          XY          XZ          YZ
         1         0.1722     -0.0720      0.0061      0.0259      0.0000      0.0000
         2         0.1093     -0.1502      0.0228      0.0033      0.0000      0.0000
         3         0.0000      0.0000      0.0000      0.0000      0.1094      0.0725
         4         0.0000      0.0000      0.0000      0.0000      0.2642      0.0849
         5         0.0000      0.0000      0.0000      0.0000      0.3604      0.2823
         6         0.0000      0.0000      0.0000      0.0000     -0.2328      0.1886
 <0|del|b> * <b|rxdel|0> + <0|del|b> * <b|delr+rdel|0>
 Rotatory Strengths (R) in cgs (10**-40 erg-esu-cm/Gauss)
       state          XX          YY          ZZ    R(velocity)    E-M Angle
         1        -0.0014     -0.0004     -0.0002     -0.0007       90.00
         2        -0.0002     -0.0003      0.0002     -0.0001       90.00
         3         0.0004     -0.0001      0.0000      0.0001       90.00
         4        -0.0002      0.0001      0.0000      0.0000       90.00
         5         0.0009      0.0015     -0.0001      0.0007       90.00
         6         0.0013      0.0033      0.0008      0.0018       90.00
 1/2[<0|r|b>*<b|rxdel|0> + (<0|rxdel|b>*<b|r|0>)*]
 Rotatory Strengths (R) in cgs (10**-40 erg-esu-cm/Gauss)
       state          XX          YY          ZZ     R(length)
         1        -0.0003     -0.0011     -0.0004     -0.0006
         2         0.0000     -0.0002      0.0000     -0.0001
         3         0.0002      0.0004      0.0000      0.0002
         4        -0.0001      0.0000      0.0001      0.0000
         5         0.0010      0.0003      0.0000      0.0005
         6         0.0040      0.0006      0.0013      0.0020
  1/2[<0|del|b>*<b|r|0> + (<0|r|b>*<b|del|0>)*] (Au)
       state          X           Y           Z        Dip. S.   Osc.(frdel)
         1        -0.0287     -0.0879      0.0000      0.1166      0.0777
         2        -0.1076     -0.0029      0.0000      0.1105      0.0737
         3         0.0000      0.0000     -0.0049      0.0049      0.0033
         4         0.0000      0.0000     -0.0061      0.0061      0.0041
         5         0.0000      0.0000      0.0000      0.0000      0.0000
         6         0.0000      0.0000     -0.0057      0.0057      0.0038

 Excitation energies and oscillator strengths:
 
 Excited State   1:      Singlet-A      5.1552 eV  240.50 nm  f=0.0757  <S**2>=0.000
      30 -> 32        -0.33559
      30 -> 36         0.16248
      31 -> 32         0.56725
      31 -> 36         0.15805
 This state for optimization and/or second-order correction.
 Total Energy, E(TD-HF/TD-KS) =  -363.513212517    
 Copying the excited state density for this state as the 1-particle RhoCI density.
 
 Excited State   2:      Singlet-A      5.1667 eV  239.97 nm  f=0.0778  <S**2>=0.000
      30 -> 32         0.47852
      31 -> 32         0.36012
      31 -> 36        -0.33596
 
 Excited State   3:      Singlet-A      5.6489 eV  219.48 nm  f=0.0043  <S**2>=0.000
      29 -> 33         0.10295
      31 -> 33         0.67319
      31 -> 40         0.10800
 
 Excited State   4:      Singlet-A      6.1964 eV  200.09 nm  f=0.0040  <S**2>=0.000
      27 -> 33        -0.10048
      30 -> 33         0.59526
      30 -> 34        -0.11077
      30 -> 40         0.11839
      31 -> 34         0.26907
      31 -> 35        -0.10544
 
 Excited State   5:      Singlet-A      6.3185 eV  196.22 nm  f=0.0000  <S**2>=0.000
      30 -> 33        -0.28098
      31 -> 34         0.56399
      31 -> 35        -0.21324
 
 Excited State   6:      Singlet-A      6.3667 eV  194.74 nm  f=0.0039  <S**2>=0.000
      31 -> 34         0.22158
      31 -> 35         0.59878
      31 -> 37         0.13330
      31 -> 43         0.13657
 SavETr:  write IOETrn=   770 NScale= 10 NData=  16 NLR=1 NState=    6 LETran=     118.
 Leave Link  914 at Wed Nov 04 21:44:56 2015, MaxMem=    33554432 cpu:       774.0
 (Enter C:\G09W\l601.exe)
 Copying SCF densities to generalized density rwf, IOpCl= 0 IROHF=0.

 **********************************************************************

            Population analysis using the SCF density.

 **********************************************************************

 Orbital symmetries:
       Occupied  (A) (A) (A) (A) (A) (A) (A) (A) (A) (A) (A) (A)
                 (A) (A) (A) (A) (A) (A) (A) (A) (A) (A) (A) (A)
                 (A) (A) (A) (A) (A) (A) (A)
       Virtual   (A) (A) (A) (A) (A) (A) (A) (A) (A) (A) (A) (A)
                 (A) (A) (A) (A) (A) (A) (A) (A) (A) (A) (A) (A)
                 (A) (A) (A) (A) (A) (A) (A) (A) (A) (A) (A) (A)
                 (A) (A) (A) (A) (A) (A) (A) (A) (A) (A) (A) (A)
                 (A) (A) (A) (A) (A) (A) (A) (A) (A) (A) (A) (A)
                 (A) (A) (A) (A) (A) (A) (A) (A) (A) (A) (A) (A)
                 (A) (A) (A) (A) (A) (A) (A) (A) (A) (A) (A) (A)
                 (A) (A) (A) (A) (A) (A) (A) (A) (A) (A) (A) (A)
                 (A) (A) (A) (A) (A) (A) (A) (A) (A) (A) (A) (A)
                 (A) (A) (A) (A) (A) (A) (A) (A) (A) (A) (A) (A)
                 (A) (A) (A) (A) (A) (A) (A) (A) (A) (A) (A) (A)
                 (A) (A) (A) (A) (A) (A) (A) (A) (A) (A) (A) (A)
                 (A) (A) (A) (A) (A) (A) (A) (A) (A) (A)
 The electronic state is 1-A.
 Alpha  occ. eigenvalues --  -14.50205 -10.33301 -10.33165 -10.30421 -10.29851
 Alpha  occ. eigenvalues --  -10.29718 -10.29665 -10.29173 -10.28728  -1.09113
 Alpha  occ. eigenvalues --   -0.94524  -0.88456  -0.83931  -0.81754  -0.72056
 Alpha  occ. eigenvalues --   -0.68966  -0.67816  -0.63432  -0.57146  -0.56133
 Alpha  occ. eigenvalues --   -0.52666  -0.51763  -0.51683  -0.49772  -0.47474
 Alpha  occ. eigenvalues --   -0.43873  -0.42522  -0.41719  -0.36063  -0.29957
 Alpha  occ. eigenvalues --   -0.28010
 Alpha virt. eigenvalues --    0.05066   0.05721   0.07555   0.08015   0.08909
 Alpha virt. eigenvalues --    0.09304   0.09680   0.11198   0.11766   0.12159
 Alpha virt. eigenvalues --    0.12165   0.12649   0.14601   0.15153   0.16045
 Alpha virt. eigenvalues --    0.16257   0.17306   0.18646   0.19851   0.20100
 Alpha virt. eigenvalues --    0.21362   0.21605   0.22631   0.22902   0.23283
 Alpha virt. eigenvalues --    0.24335   0.24982   0.25107   0.25752   0.26245
 Alpha virt. eigenvalues --    0.26893   0.27803   0.28099   0.28997   0.29527
 Alpha virt. eigenvalues --    0.30015   0.30139   0.30697   0.32036   0.32420
 Alpha virt. eigenvalues --    0.33520   0.33697   0.34784   0.36531   0.37416
 Alpha virt. eigenvalues --    0.38598   0.38937   0.40522   0.42341   0.44437
 Alpha virt. eigenvalues --    0.45360   0.47686   0.52667   0.52917   0.60209
 Alpha virt. eigenvalues --    0.66801   0.71958   0.75701   0.75867   0.78296
 Alpha virt. eigenvalues --    0.80349   0.80412   0.81904   0.82033   0.83320
 Alpha virt. eigenvalues --    0.83708   0.84404   0.86228   0.87767   0.88831
 Alpha virt. eigenvalues --    0.90377   0.93955   0.98206   0.98938   1.00167
 Alpha virt. eigenvalues --    1.02353   1.03113   1.03976   1.04767   1.07175
 Alpha virt. eigenvalues --    1.09290   1.11835   1.13341   1.15188   1.18269
 Alpha virt. eigenvalues --    1.20174   1.20562   1.25868   1.26691   1.29312
 Alpha virt. eigenvalues --    1.31275   1.32172   1.34208   1.40784   1.40824
 Alpha virt. eigenvalues --    1.42935   1.45638   1.50498   1.50654   1.53875
 Alpha virt. eigenvalues --    1.55002   1.55586   1.58742   1.59504   1.63202
 Alpha virt. eigenvalues --    1.67871   1.74092   1.87480   1.93907   1.97981
 Alpha virt. eigenvalues --    1.98154   2.01345   2.03411   2.08444   2.08731
 Alpha virt. eigenvalues --    2.09768   2.16740   2.20287   2.23926   2.27412
 Alpha virt. eigenvalues --    2.27972   2.28711   2.34269   2.35523   2.36636
 Alpha virt. eigenvalues --    2.38867   2.40697   2.48170   2.50322   2.53971
 Alpha virt. eigenvalues --    2.64563   2.66079   2.73019   2.75025   2.76935
 Alpha virt. eigenvalues --    2.80077   2.83641   2.90870   2.94235   2.95712
 Alpha virt. eigenvalues --    3.04562   3.07804   3.21924   3.34239   3.55227
 Alpha virt. eigenvalues --    4.25356   4.35896   4.38927   4.42376   4.46140
 Alpha virt. eigenvalues --    4.49612   4.58084   4.62038   4.89216
          Condensed to atoms (all electrons):
               1          2          3          4          5          6
     1  C    5.729173  -0.085130   0.086522   0.254440   0.414384  -0.700924
     2  C   -0.085130  11.631333  -0.114652   0.816073  -2.901171  -0.893164
     3  C    0.086522  -0.114652  13.576304  -0.885976  -3.341531  -3.183545
     4  C    0.254440   0.816073  -0.885976   5.780060   0.087101   0.309355
     5  C    0.414384  -2.901171  -3.341531   0.087101  12.135654  -1.408767
     6  C   -0.700924  -0.893164  -3.183545   0.309355  -1.408767  12.114414
     7  C    0.103452  -3.111267  -4.175053  -0.244885   2.824023   1.455506
     8  C   -0.073656   0.918339   1.819408   0.050918  -1.237986  -0.646281
     9  N   -0.030375   0.204821   0.804941   0.000114  -0.543888  -0.269136
    10  H   -0.002277   0.027722   0.186488  -0.010307  -0.148668  -0.076059
    11  H    0.251577   0.009358   0.020238   0.023896   0.013174  -0.015119
    12  H    0.048686   0.153187   0.124457  -0.000589  -0.021519   0.013753
    13  H    0.031549  -0.008774   0.017969   0.240244   0.027469  -0.001062
    14  H   -0.003114  -0.008981  -0.000012   0.070790   0.127030   0.114456
    15  H    0.003430   0.001955   0.021333   0.001171  -0.000163   0.020648
    16  H    0.001481  -0.027449  -0.137093   0.000189   0.044498   0.126862
               7          8          9         10         11         12
     1  C    0.103452  -0.073656  -0.030375  -0.002277   0.251577   0.048686
     2  C   -3.111267   0.918339   0.204821   0.027722   0.009358   0.153187
     3  C   -4.175053   1.819408   0.804941   0.186488   0.020238   0.124457
     4  C   -0.244885   0.050918   0.000114  -0.010307   0.023896  -0.000589
     5  C    2.824023  -1.237986  -0.543888  -0.148668   0.013174  -0.021519
     6  C    1.455506  -0.646281  -0.269136  -0.076059  -0.015119   0.013753
     7  C   11.253264  -1.676146  -0.774914  -0.006934   0.005446  -0.027869
     8  C   -1.676146   6.142480   0.657361  -0.010980   0.000124   0.004895
     9  N   -0.774914   0.657361   7.234244   0.281117   0.000274  -0.000553
    10  H   -0.006934  -0.010980   0.281117   0.327963   0.000000   0.000003
    11  H    0.005446   0.000124   0.000274   0.000000   0.497472  -0.003417
    12  H   -0.027869   0.004895  -0.000553   0.000003  -0.003417   0.498811
    13  H    0.000453   0.001172  -0.000391  -0.000001  -0.003356  -0.000135
    14  H   -0.004218   0.006956  -0.008122   0.001759  -0.000128   0.000016
    15  H    0.255968  -0.005039   0.005770  -0.000089  -0.000001   0.001224
    16  H    0.085109   0.283264  -0.064124  -0.002366   0.000000  -0.000002
              13         14         15         16
     1  C    0.031549  -0.003114   0.003430   0.001481
     2  C   -0.008774  -0.008981   0.001955  -0.027449
     3  C    0.017969  -0.000012   0.021333  -0.137093
     4  C    0.240244   0.070790   0.001171   0.000189
     5  C    0.027469   0.127030  -0.000163   0.044498
     6  C   -0.001062   0.114456   0.020648   0.126862
     7  C    0.000453  -0.004218   0.255968   0.085109
     8  C    0.001172   0.006956  -0.005039   0.283264
     9  N   -0.000391  -0.008122   0.005770  -0.064124
    10  H   -0.000001   0.001759  -0.000089  -0.002366
    11  H   -0.003356  -0.000128  -0.000001   0.000000
    12  H   -0.000135   0.000016   0.001224  -0.000002
    13  H    0.496761  -0.003265   0.000000   0.000000
    14  H   -0.003265   0.503395   0.000002   0.000001
    15  H    0.000000   0.000002   0.477692  -0.000638
    16  H    0.000000   0.000001  -0.000638   0.475659
 Mulliken charges:
               1
     1  C   -0.029218
     2  C   -0.612200
     3  C    1.180204
     4  C   -0.492596
     5  C   -0.069640
     6  C   -0.960937
     7  C    0.038064
     8  C   -0.234830
     9  N   -0.497139
    10  H    0.432630
    11  H    0.200462
    12  H    0.209051
    13  H    0.201368
    14  H    0.203436
    15  H    0.216737
    16  H    0.214608
 Sum of Mulliken charges =   0.00000
 Mulliken charges with hydrogens summed into heavy atoms:
               1
     1  C    0.171244
     2  C   -0.403149
     3  C    1.180204
     4  C   -0.291227
     5  C    0.133796
     6  C   -0.960937
     7  C    0.254801
     8  C   -0.020222
     9  N   -0.064510
 Electronic spatial extent (au):  <R**2>=           1001.2746
 Charge=              0.0000 electrons
 Dipole moment (field-independent basis, Debye):
    X=              1.4684    Y=             -1.5852    Z=              0.0000  Tot=              2.1608
 Quadrupole moment (field-independent basis, Debye-Ang):
   XX=            -44.7143   YY=            -43.8396   ZZ=            -58.4766
   XY=             -3.3877   XZ=              0.0000   YZ=              0.0000
 Traceless Quadrupole moment (field-independent basis, Debye-Ang):
   XX=              4.2959   YY=              5.1706   ZZ=             -9.4664
   XY=             -3.3877   XZ=              0.0000   YZ=              0.0000
 Octapole moment (field-independent basis, Debye-Ang**2):
  XXX=             14.3425  YYY=            -10.4258  ZZZ=              0.0000  XYY=              7.9301
  XXY=             -8.4010  XXZ=              0.0000  XZZ=              2.0535  YZZ=             -1.9419
  YYZ=              0.0001  XYZ=              0.0000
 Hexadecapole moment (field-independent basis, Debye-Ang**3):
 XXXX=           -798.8326 YYYY=           -360.6044 ZZZZ=            -70.9232 XXXY=            -22.8527
 XXXZ=             -0.0003 YYYX=            -20.4642 YYYZ=              0.0000 ZZZX=              0.0000
 ZZZY=              0.0000 XXYY=           -191.8036 XXZZ=           -186.0962 YYZZ=            -92.0978
 XXYZ=              0.0000 YYXZ=              0.0001 ZZXY=             -4.1659
 N-N= 4.020714924591D+02 E-N=-1.647032696623D+03  KE= 3.604214728968D+02
 Leave Link  601 at Wed Nov 04 21:44:56 2015, MaxMem=    33554432 cpu:         0.0
 (Enter C:\G09W\l108.exe)
 Variable Step   Value    
 -------- ---- -----------
     1       1    2.581366
    16       0    2.560579
 Leave Link  108 at Wed Nov 04 21:44:56 2015, MaxMem=    33554432 cpu:         0.0
 (Enter C:\G09W\l202.exe)
 ---------------------------------------------------------------------------------------------------
                            Z-MATRIX (ANGSTROMS AND DEGREES)
   CD    Cent   Atom    N1       Length/X        N2       Alpha/Y        N3        Beta/Z          J
 ---------------------------------------------------------------------------------------------------
      1      1  C 
      2      2  C        1   1.366000(     1)
      3      3  C        2   1.404430(     2)      1  119.069(    16)
      4      4  C        1   1.409750(     3)      2  121.066(    17)      3    0.000(    30)      0
      5      5  C        4   1.385440(     4)      1  121.212(    18)      2  360.000(    31)      0
      6      6  C        5   1.398460(     5)      4  117.426(    19)      1    0.000(    32)      0
      7      7  C        3   1.437490(     6)      2  134.267(    20)      1  180.000(    33)      0
      8      8  C        7   1.355000(     7)      3  106.917(    21)      2  180.000(    34)      0
      9      9  N        6   1.377320(     8)      5  130.322(    22)      4  180.000(    35)      0
     10     10  H        9   1.006580(     9)      6  125.474(    23)      5  360.000(    36)      0
     11     11  H        1   1.086240(    10)      2  119.722(    24)      3  180.000(    37)      0
     12     12  H        2   1.086760(    11)      1  120.556(    25)      3  180.000(    38)      0
     13     13  H        4   1.086300(    12)      1  119.369(    26)      2  180.000(    39)      0
     14     14  H        5   1.086800(    13)      4  121.135(    27)      1  180.000(    40)      0
     15     15  H        7   1.081220(    14)      3  127.123(    28)      2    0.000(    41)      0
     16     16  H        8   1.081220(    15)      7  130.033(    29)      3  180.000(    42)      0
 ---------------------------------------------------------------------------------------------------
                         Z-Matrix orientation:                         
 ---------------------------------------------------------------------
 Center     Atomic      Atomic             Coordinates (Angstroms)
 Number     Number       Type             X           Y           Z
 ---------------------------------------------------------------------
      1          6           0        0.000000    0.000000    0.000000
      2          6           0        0.000000    0.000000    1.366000
      3          6           0        1.227522    0.000000    2.048359
      4          6           0        1.207560    0.000000   -0.727458
      5          6           0        2.433969    0.000001   -0.082972
      6          6           0        2.426750    0.000001    1.315470
      7          6           0        1.604357   -0.000003    3.435577
      8          6           0        2.958747    0.000005    3.476236
      9          7           0        3.472228    0.000000    2.212123
     10          1           0        4.449296   -0.000002    1.970170
     11          1           0       -0.943335   -0.000002   -0.538550
     12          1           0       -0.935844   -0.000002    1.918489
     13          1           0        1.175393    0.000000   -1.813282
     14          1           0        3.364142    0.000001   -0.645032
     15          1           0        0.943468   -0.000006    4.291300
     16          1           0        3.629065    0.000010    4.324594
 ---------------------------------------------------------------------
                    Distance matrix (angstroms):
                    1          2          3          4          5
     1  C    0.000000
     2  C    1.366000   0.000000
     3  C    2.388009   1.404430   0.000000
     4  C    1.409750   2.416768   2.775889   0.000000
     5  C    2.435383   2.832618   2.449099   1.385440   0.000000
     6  C    2.760358   2.427276   1.405445   2.379071   1.398460
     7  C    3.791721   2.618609   1.437490   4.181902   3.615030
     8  C    4.564910   3.634182   2.244098   4.553867   3.597687
     9  N    4.117020   3.573834   2.250672   3.710776   2.519015
    10  H    4.865985   4.490129   3.222723   4.217351   2.876966
    11  H    1.086240   2.125369   3.377087   2.159174   3.407893
    12  H    2.134573   1.086760   2.167260   3.405174   3.919373
    13  H    2.160911   3.389599   3.861993   1.086300   2.139623
    14  H    3.425423   3.919401   3.437951   2.158158   1.086800
    15  H    4.393790   3.073681   2.260856   5.025702   4.621239
    16  H    5.645549   4.682242   3.308875   5.602403   4.566715
                    6          7          8          9         10
     6  C    0.000000
     7  C    2.274024   0.000000
     8  C    2.225294   1.355000   0.000000
     9  N    1.377320   2.232886   1.364421   0.000000
    10  H    2.125870   3.200171   2.118955   1.006580   0.000000
    11  H    3.846409   4.720638   5.598639   5.202249   5.947617
    12  H    3.416236   2.958746   4.194569   4.417840   5.385388
    13  H    3.369715   5.266358   5.582056   4.634580   5.003294
    14  H    2.173079   4.443896   4.141159   2.859199   2.831403
    15  H    3.325010   1.081220   2.173862   3.273775   4.204577
    16  H    3.240430   2.211288   1.081220   2.118285   2.493209
                   11         12         13         14         15
    11  H    0.000000
    12  H    2.457051   0.000000
    13  H    2.472640   4.287590   0.000000
    14  H    4.308793   5.006148   2.481014   0.000000
    15  H    5.185314   3.026887   6.108986   5.497912   0.000000
    16  H    6.675104   5.160206   6.610145   4.976682   2.685803
                   16
    16  H    0.000000
 Stoichiometry    C8H7N
 Framework group  C1[X(C8H7N)]
 Deg. of freedom    42
 Full point group                 C1      NOp   1
 RotChk:  IX=0 Diff= 4.92D-04
 Largest Abelian subgroup         C1      NOp   1
 Largest concise Abelian subgroup C1      NOp   1
                         Standard orientation:                         
 ---------------------------------------------------------------------
 Center     Atomic      Atomic             Coordinates (Angstroms)
 Number     Number       Type             X           Y           Z
 ---------------------------------------------------------------------
      1          6           0       -2.150457    0.684137   -0.000001
      2          6           0       -0.996185    1.414625   -0.000001
      3          6           0        0.236844    0.742268    0.000000
      4          6           0       -2.119401   -0.725271    0.000000
      5          6           0       -0.918969   -1.416941    0.000000
      6          6           0        0.258855   -0.663004    0.000000
      7          6           0        1.610563    1.165676    0.000003
      8          6           0        2.369199    0.042958   -0.000004
      9          7           0        1.575612   -1.066937    0.000002
     10          1           0        1.893663   -2.021948    0.000005
     11          1           0       -3.109994    1.193260    0.000000
     12          1           0       -1.029786    2.500865    0.000000
     13          1           0       -3.054125   -1.278749    0.000000
     14          1           0       -0.896488   -2.503508    0.000001
     15          1           0        1.980231    2.181738    0.000006
     16          1           0        3.444524   -0.069791   -0.000008
 ---------------------------------------------------------------------
 Rotational constants (GHZ):      3.9232876      1.6477468      1.1603921
 Leave Link  202 at Wed Nov 04 21:44:56 2015, MaxMem=    33554432 cpu:         0.0
 (Enter C:\G09W\l301.exe)
 Standard basis: 6-31+G(d) (6D, 7F)
 Ernie: Thresh=  0.10000D-02 Tol=  0.10000D-05 Strict=F.
 There are   185 symmetry adapted cartesian basis functions of A   symmetry.
 There are   185 symmetry adapted basis functions of A   symmetry.
   185 basis functions,   316 primitive gaussians,   185 cartesian basis functions
    31 alpha electrons       31 beta electrons
       nuclear repulsion energy       402.0182277559 Hartrees.
 IExCor= 4639 DFT=T Ex+Corr=wB97XD ExCW=0 ScaHFX=  1.000000
 ScaDFX=  1.000000  1.000000  1.000000  1.000000 ScalE2=  1.000000  1.000000
 IRadAn=      0 IRanWt=     -1 IRanGd=            0 ICorTp=0 IEmpDi=121
  HFx wShort=  0.000000 wLong=  0.200000 cFull=  0.222036 cShort=  0.000000 cLong=  0.777964
  DFx wShort=  0.000000 wLong=  0.200000 cFull=  0.000000 cShort=  0.000000 cLong=  1.000000
 NAtoms=   16 NActive=   16 NUniq=   16 SFac= 1.00D+00 NAtFMM=   60 NAOKFM=F Big=F
 Integral buffers will be    131072 words long.
 Raffenetti 1 integral format.
 Two-electron integral symmetry is turned on.
 R6Disp:  Grimme-D2 Dispersion energy=       -0.0074587211 Hartrees.
 Nuclear repulsion after empirical dispersion term =      402.0107690348 Hartrees.
 Leave Link  301 at Wed Nov 04 21:44:56 2015, MaxMem=    33554432 cpu:         0.0
 (Enter C:\G09W\l302.exe)
 NPDir=0 NMtPBC=     1 NCelOv=     1 NCel=       1 NClECP=     1 NCelD=      1
         NCelK=      1 NCelE2=     1 NClLst=     1 CellRange=     0.0.
 One-electron integrals computed using PRISM.
 NBasis=   185 RedAO= T EigKep=  1.26D-06  NBF=   185
 NBsUse=   185 1.00D-06 EigRej= -1.00D+00 NBFU=   185
 Precomputing XC quadrature grid using
 IXCGrd= 4 IRadAn=           0 IRanWt=          -1 IRanGd=           0 AccXCQ= 0.00D+00.
 Generated NRdTot=       0 NPtTot=           0 NUsed=           0 NTot=          32
 NSgBfM=   185   185   185   185   185 MxSgAt=    16 MxSgA2=    16.
 Leave Link  302 at Wed Nov 04 21:44:56 2015, MaxMem=    33554432 cpu:         0.0
 (Enter C:\G09W\l308.exe)
 Leave Link  308 at Wed Nov 04 21:44:56 2015, MaxMem=    33554432 cpu:         0.0
 (Enter C:\G09W\l303.exe)
 DipDrv:  MaxL=1.
 Leave Link  303 at Wed Nov 04 21:44:56 2015, MaxMem=    33554432 cpu:         0.0
 (Enter C:\G09W\l401.exe)
 Initial guess from the checkpoint file:  "1v7_2.chk"
 B after Tr=     0.000000    0.000000    0.000000
         Rot=    1.000000    0.000000    0.000000    0.000190 Ang=   0.02 deg.
 Guess basis will be translated and rotated to current coordinates.
 JPrj=2 DoOrth=T DoCkMO=T.
 Generating alternative initial guess.
 ExpMin= 4.38D-02 ExpMax= 4.17D+03 ExpMxC= 6.27D+02 IAcc=2 IRadAn=         4 AccDes= 0.00D+00
 Harris functional with IExCor= 4639 and IRadAn=       4 diagonalized for initial guess.
 HarFok:  IExCor= 4639 AccDes= 0.00D+00 IRadAn=         4 IDoV= 1 UseB2=F ITyADJ=14
 ICtDFT=  3500011 ScaDFX=  1.000000  1.000000  1.000000  1.000000
 FoFCou: FMM=F IPFlag=           0 FMFlag=      100000 FMFlg1=           0
         NFxFlg=           0 DoJE=T BraDBF=F KetDBF=T FulRan=T
         wScrn=  0.000000 ICntrl=     500 IOpCl=  0 I1Cent=   200000004 NGrid=           0
         NMat0=    1 NMatS0=      1 NMatT0=    0 NMatD0=    1 NMtDS0=    0 NMtDT0=    0
 Petite list used in FoFCou.
 Harris En= -347.398846690641    
 Leave Link  401 at Wed Nov 04 21:45:02 2015, MaxMem=    33554432 cpu:         5.0
 (Enter C:\G09W\l502.exe)
 Closed shell SCF:
 Using DIIS extrapolation, IDIIS=  1040.
 Integral symmetry usage will be decided dynamically.
 IVT=      123721 IEndB=      123721 NGot=    33554432 MDV=    33481762
 LenX=    33481762 LenY=    33447096
 Requested convergence on RMS density matrix=1.00D-08 within 128 cycles.
 Requested convergence on MAX density matrix=1.00D-06.
 Requested convergence on             energy=1.00D-06.
 No special actions if energy rises.
 Fock matrices will be formed incrementally for  20 cycles.

 Cycle   1  Pass 1  IDiag  1:
 FoFJK:  IHMeth= 1 ICntrl=       0 DoSepK=T KAlg= 0 I1Cent=   0 FoldK=F
 IRaf=         1 NMat=   1 IRICut=       1 DoRegI=T DoRafI=F ISym2E= 0.
 FoFCou: FMM=F IPFlag=           0 FMFlag=      100000 FMFlg1=           0
         NFxFlg=           0 DoJE=T BraDBF=F KetDBF=F FulRan=T
         wScrn=  0.000000 ICntrl=     500 IOpCl=  0 I1Cent=           0 NGrid=           0
         NMat0=    1 NMatS0=      1 NMatT0=    0 NMatD0=    1 NMtDS0=    0 NMtDT0=    0
 Symmetry not used in FoFCou.
 E= -363.702737563725    
 DIIS: error= 7.68D-05 at cycle   1 NSaved=   1.
 NSaved= 1 IEnMin= 1 EnMin= -363.702737563725     IErMin= 1 ErrMin= 7.68D-05
 ErrMax= 7.68D-05  0.00D+00 EMaxC= 1.00D-01 BMatC= 1.43D-06 BMatP= 1.43D-06
 IDIUse=1 WtCom= 1.00D+00 WtEn= 0.00D+00
 Coeff-Com:  0.100D+01
 Coeff:      0.100D+01
 Gap=     0.571 Goal=   None    Shift=    0.000
 RMSDP=1.33D-04 MaxDP=5.25D-03              OVMax= 2.86D-04

 Cycle   2  Pass 1  IDiag  1:
 RMSU=  1.08D-04    CP:  9.99D-01
 E= -363.702738936360     Delta-E=       -0.000001372635 Rises=F Damp=F
 DIIS: error= 1.79D-05 at cycle   2 NSaved=   2.
 NSaved= 2 IEnMin= 2 EnMin= -363.702738936360     IErMin= 2 ErrMin= 1.79D-05
 ErrMax= 1.79D-05  0.00D+00 EMaxC= 1.00D-01 BMatC= 9.90D-08 BMatP= 1.43D-06
 IDIUse=1 WtCom= 1.00D+00 WtEn= 0.00D+00
 Coeff-Com:  0.588D-01 0.941D+00
 Coeff:      0.588D-01 0.941D+00
 Gap=     0.331 Goal=   None    Shift=    0.000
 RMSDP=2.35D-05 MaxDP=7.95D-04 DE=-1.37D-06 OVMax= 1.76D-04

 Cycle   3  Pass 1  IDiag  1:
 RMSU=  1.82D-05    CP:  9.99D-01  1.14D+00
 E= -363.702739003631     Delta-E=       -0.000000067272 Rises=F Damp=F
 DIIS: error= 1.77D-05 at cycle   3 NSaved=   3.
 NSaved= 3 IEnMin= 3 EnMin= -363.702739003631     IErMin= 3 ErrMin= 1.77D-05
 ErrMax= 1.77D-05  0.00D+00 EMaxC= 1.00D-01 BMatC= 6.49D-08 BMatP= 9.90D-08
 IDIUse=1 WtCom= 1.00D+00 WtEn= 0.00D+00
 Coeff-Com: -0.374D-01 0.447D+00 0.591D+00
 Coeff:     -0.374D-01 0.447D+00 0.591D+00
 Gap=     0.331 Goal=   None    Shift=    0.000
 RMSDP=1.04D-05 MaxDP=3.65D-04 DE=-6.73D-08 OVMax= 8.72D-05

 Cycle   4  Pass 1  IDiag  1:
 RMSU=  6.75D-06    CP:  9.99D-01  1.17D+00  1.01D+00
 E= -363.702739068641     Delta-E=       -0.000000065010 Rises=F Damp=F
 DIIS: error= 3.56D-06 at cycle   4 NSaved=   4.
 NSaved= 4 IEnMin= 4 EnMin= -363.702739068641     IErMin= 4 ErrMin= 3.56D-06
 ErrMax= 3.56D-06  0.00D+00 EMaxC= 1.00D-01 BMatC= 1.73D-09 BMatP= 6.49D-08
 IDIUse=1 WtCom= 1.00D+00 WtEn= 0.00D+00
 Coeff-Com: -0.920D-02 0.187D-01 0.118D+00 0.872D+00
 Coeff:     -0.920D-02 0.187D-01 0.118D+00 0.872D+00
 Gap=     0.331 Goal=   None    Shift=    0.000
 RMSDP=3.06D-06 MaxDP=1.39D-04 DE=-6.50D-08 OVMax= 3.89D-05

 Cycle   5  Pass 1  IDiag  1:
 RMSU=  1.20D-06    CP:  9.99D-01  1.18D+00  1.13D+00  1.20D+00
 E= -363.702739072829     Delta-E=       -0.000000004188 Rises=F Damp=F
 DIIS: error= 2.03D-06 at cycle   5 NSaved=   5.
 NSaved= 5 IEnMin= 5 EnMin= -363.702739072829     IErMin= 5 ErrMin= 2.03D-06
 ErrMax= 2.03D-06  0.00D+00 EMaxC= 1.00D-01 BMatC= 4.49D-10 BMatP= 1.73D-09
 IDIUse=1 WtCom= 1.00D+00 WtEn= 0.00D+00
 Coeff-Com:  0.322D-02-0.668D-01-0.555D-01 0.307D+00 0.812D+00
 Coeff:      0.322D-02-0.668D-01-0.555D-01 0.307D+00 0.812D+00
 Gap=     0.331 Goal=   None    Shift=    0.000
 RMSDP=8.93D-07 MaxDP=2.53D-05 DE=-4.19D-09 OVMax= 2.38D-05

 Cycle   6  Pass 1  IDiag  1:
 RMSU=  6.02D-07    CP:  9.99D-01  1.18D+00  1.15D+00  1.25D+00  8.06D-01
 E= -363.702739074082     Delta-E=       -0.000000001253 Rises=F Damp=F
 DIIS: error= 7.31D-07 at cycle   6 NSaved=   6.
 NSaved= 6 IEnMin= 6 EnMin= -363.702739074082     IErMin= 6 ErrMin= 7.31D-07
 ErrMax= 7.31D-07  0.00D+00 EMaxC= 1.00D-01 BMatC= 5.69D-11 BMatP= 4.49D-10
 IDIUse=1 WtCom= 1.00D+00 WtEn= 0.00D+00
 Coeff-Com:  0.229D-02-0.193D-01-0.339D-01-0.587D-01 0.151D+00 0.959D+00
 Coeff:      0.229D-02-0.193D-01-0.339D-01-0.587D-01 0.151D+00 0.959D+00
 Gap=     0.331 Goal=   None    Shift=    0.000
 RMSDP=4.17D-07 MaxDP=1.66D-05 DE=-1.25D-09 OVMax= 1.31D-05

 Cycle   7  Pass 1  IDiag  1:
 RMSU=  2.87D-07    CP:  9.99D-01  1.18D+00  1.16D+00  1.25D+00  8.86D-01
                    CP:  1.26D+00
 E= -363.702739074346     Delta-E=       -0.000000000264 Rises=F Damp=F
 DIIS: error= 4.06D-07 at cycle   7 NSaved=   7.
 NSaved= 7 IEnMin= 7 EnMin= -363.702739074346     IErMin= 7 ErrMin= 4.06D-07
 ErrMax= 4.06D-07  0.00D+00 EMaxC= 1.00D-01 BMatC= 2.08D-11 BMatP= 5.69D-11
 IDIUse=1 WtCom= 1.00D+00 WtEn= 0.00D+00
 Coeff-Com:  0.286D-03 0.777D-02-0.295D-02-0.105D+00-0.146D+00 0.441D+00
 Coeff-Com:  0.805D+00
 Coeff:      0.286D-03 0.777D-02-0.295D-02-0.105D+00-0.146D+00 0.441D+00
 Coeff:      0.805D+00
 Gap=     0.331 Goal=   None    Shift=    0.000
 RMSDP=2.92D-07 MaxDP=1.21D-05 DE=-2.64D-10 OVMax= 6.45D-06

 Cycle   8  Pass 1  IDiag  1:
 RMSU=  1.57D-07    CP:  9.99D-01  1.18D+00  1.15D+00  1.24D+00  8.91D-01
                    CP:  1.46D+00  1.15D+00
 E= -363.702739074428     Delta-E=       -0.000000000082 Rises=F Damp=F
 DIIS: error= 7.61D-08 at cycle   8 NSaved=   8.
 NSaved= 8 IEnMin= 8 EnMin= -363.702739074428     IErMin= 8 ErrMin= 7.61D-08
 ErrMax= 7.61D-08  0.00D+00 EMaxC= 1.00D-01 BMatC= 1.26D-12 BMatP= 2.08D-11
 IDIUse=1 WtCom= 1.00D+00 WtEn= 0.00D+00
 Coeff-Com: -0.178D-03 0.457D-02 0.325D-02-0.211D-01-0.572D-01 0.265D-01
 Coeff-Com:  0.236D+00 0.808D+00
 Coeff:     -0.178D-03 0.457D-02 0.325D-02-0.211D-01-0.572D-01 0.265D-01
 Coeff:      0.236D+00 0.808D+00
 Gap=     0.331 Goal=   None    Shift=    0.000
 RMSDP=1.03D-07 MaxDP=6.47D-06 DE=-8.24D-11 OVMax= 1.30D-06

 Cycle   9  Pass 1  IDiag  1:
 RMSU=  3.71D-08    CP:  9.99D-01  1.18D+00  1.15D+00  1.24D+00  8.82D-01
                    CP:  1.47D+00  1.26D+00  1.11D+00
 E= -363.702739074443     Delta-E=       -0.000000000015 Rises=F Damp=F
 DIIS: error= 3.73D-08 at cycle   9 NSaved=   9.
 NSaved= 9 IEnMin= 9 EnMin= -363.702739074443     IErMin= 9 ErrMin= 3.73D-08
 ErrMax= 3.73D-08  0.00D+00 EMaxC= 1.00D-01 BMatC= 2.20D-13 BMatP= 1.26D-12
 IDIUse=1 WtCom= 1.00D+00 WtEn= 0.00D+00
 Coeff-Com: -0.957D-04 0.988D-03 0.157D-02 0.265D-02-0.798D-02-0.346D-01
 Coeff-Com:  0.509D-02 0.306D+00 0.726D+00
 Coeff:     -0.957D-04 0.988D-03 0.157D-02 0.265D-02-0.798D-02-0.346D-01
 Coeff:      0.509D-02 0.306D+00 0.726D+00
 Gap=     0.331 Goal=   None    Shift=    0.000
 RMSDP=3.19D-08 MaxDP=1.59D-06 DE=-1.46D-11 OVMax= 4.33D-07

 Cycle  10  Pass 1  IDiag  1:
 RMSU=  1.44D-08    CP:  9.99D-01  1.18D+00  1.14D+00  1.24D+00  8.76D-01
                    CP:  1.47D+00  1.28D+00  1.23D+00  1.03D+00
 E= -363.702739074425     Delta-E=        0.000000000018 Rises=F Damp=F
 DIIS: error= 1.56D-08 at cycle  10 NSaved=  10.
 NSaved=10 IEnMin= 9 EnMin= -363.702739074443     IErMin=10 ErrMin= 1.56D-08
 ErrMax= 1.56D-08  0.00D+00 EMaxC= 1.00D-01 BMatC= 1.91D-14 BMatP= 2.20D-13
 IDIUse=1 WtCom= 1.00D+00 WtEn= 0.00D+00
 Coeff-Com:  0.225D-04-0.739D-03-0.438D-03 0.386D-02 0.873D-02-0.738D-02
 Coeff-Com: -0.417D-01-0.119D+00 0.859D-01 0.107D+01
 Coeff:      0.225D-04-0.739D-03-0.438D-03 0.386D-02 0.873D-02-0.738D-02
 Coeff:     -0.417D-01-0.119D+00 0.859D-01 0.107D+01
 Gap=     0.331 Goal=   None    Shift=    0.000
 RMSDP=1.42D-08 MaxDP=5.16D-07 DE= 1.82D-11 OVMax= 2.32D-07

 Cycle  11  Pass 1  IDiag  1:
 RMSU=  7.29D-09    CP:  9.99D-01  1.18D+00  1.14D+00  1.24D+00  8.75D-01
                    CP:  1.46D+00  1.29D+00  1.28D+00  1.17D+00  1.41D+00
 E= -363.702739074423     Delta-E=        0.000000000002 Rises=F Damp=F
 DIIS: error= 3.82D-09 at cycle  11 NSaved=  11.
 NSaved=11 IEnMin= 9 EnMin= -363.702739074443     IErMin=11 ErrMin= 3.82D-09
 ErrMax= 3.82D-09  0.00D+00 EMaxC= 1.00D-01 BMatC= 1.77D-15 BMatP= 1.91D-14
 IDIUse=1 WtCom= 1.00D+00 WtEn= 0.00D+00
 Coeff-Com:  0.113D-04-0.236D-03-0.190D-03 0.758D-03 0.249D-02 0.699D-03
 Coeff-Com: -0.986D-02-0.481D-01-0.176D-01 0.231D+00 0.841D+00
 Coeff:      0.113D-04-0.236D-03-0.190D-03 0.758D-03 0.249D-02 0.699D-03
 Coeff:     -0.986D-02-0.481D-01-0.176D-01 0.231D+00 0.841D+00
 Gap=     0.331 Goal=   None    Shift=    0.000
[...]
 Root      4 has converged.
 Root      5 has converged.
 Root      6 not converged, maximum delta is    0.001735415582123
 Excitation Energies [eV] at current iteration:
 Root      1 :     5.108883170595428   Change is   -0.000000000010621
 Root      2 :     5.133766786009879   Change is   -0.000000000001345
 Root      3 :     5.643475592736571   Change is   -0.000000276026237
 Root      4 :     6.180015809187442   Change is   -0.000000648516942
 Root      5 :     6.310629783125333   Change is   -0.000001293606839
 Root      6 :     6.352714270679104   Change is   -0.000023804143346
 Iteration     5 Dimension    40 NMult    38 NNew      2
 CISAX will form     2 AO SS matrices at one time.
 NMat=     2 NSing=     2 JSym2X= 0.
 Root      1 has converged.
 Root      2 has converged.
 Root      3 has converged.
 Root      4 has converged.
 Root      5 has converged.
 Root      6 not converged, maximum delta is    0.001655985149665
 Excitation Energies [eV] at current iteration:
 Root      1 :     5.108883170578002   Change is   -0.000000000017426
 Root      2 :     5.133766785994539   Change is   -0.000000000015340
 Root      3 :     5.643475504106863   Change is   -0.000000088629707
 Root      4 :     6.180014870661044   Change is   -0.000000938526398
 Root      5 :     6.310629722258428   Change is   -0.000000060866905
 Root      6 :     6.352700756172489   Change is   -0.000013514506616
 Iteration     6 Dimension    42 NMult    40 NNew      2
 CISAX will form     2 AO SS matrices at one time.
 NMat=     2 NSing=     2 JSym2X= 0.
 Root      1 has converged.
 Root      2 has converged.
 Root      3 has converged.
 Root      4 has converged.
 Root      5 has converged.
 Root      6 has converged.
 Excitation Energies [eV] at current iteration:
 Root      1 :     5.108883170542714   Change is   -0.000000000035288
 Root      2 :     5.133766785960767   Change is   -0.000000000033772
 Root      3 :     5.643475307785897   Change is   -0.000000196320967
 Root      4 :     6.180014505863204   Change is   -0.000000364797840
 Root      5 :     6.310629471343584   Change is   -0.000000250914843
 Root      6 :     6.352697600267902   Change is   -0.000003155904587
 Convergence achieved on expansion vectors.
 ***********************************************************************
 Excited states from <AA,BB:AA,BB> singles matrix:
 ***********************************************************************
 
 1PDM for each excited state written to RWF  633
 Ground to excited state transition densities written to RWF  633
 Ground to excited state transition electric dipole moments (Au):
       state          X           Y           Z        Dip. S.      Osc.
         1        -0.2606      0.6452      0.0000      0.4842      0.0606
         2        -0.8216      0.2287      0.0000      0.7273      0.0915
         3         0.0000      0.0000     -0.1784      0.0318      0.0044
         4         0.0000      0.0000     -0.1673      0.0280      0.0042
         5         0.0000      0.0000     -0.0360      0.0013      0.0002
         6         0.0000      0.0000      0.1467      0.0215      0.0034
 Ground to excited state transition velocity dipole moments (Au):
       state          X           Y           Z        Dip. S.      Osc.
         1         0.0432     -0.1298      0.0000      0.0187      0.0664
         2         0.1453     -0.0471      0.0000      0.0233      0.0825
         3         0.0000      0.0000      0.0288      0.0008      0.0027
         4         0.0000      0.0000      0.0390      0.0015      0.0045
         5         0.0000      0.0000      0.0080      0.0001      0.0002
         6         0.0000      0.0000     -0.0337      0.0011      0.0032
 Ground to excited state transition magnetic dipole moments (Au):
       state          X           Y           Z
         1         0.0000      0.0000      0.1890
         2         0.0000      0.0000      0.0438
         3         0.1499     -0.1402      0.0000
         4         0.1384     -0.3416      0.0000
         5         0.2146     -0.3412      0.0000
         6         0.3440      0.2828      0.0000
 Ground to excited state transition velocity quadrupole moments (Au):
       state          XX          YY          ZZ          XY          XZ          YZ
         1         0.1609     -0.0512      0.0018      0.0208      0.0000      0.0000
         2         0.1547     -0.1660      0.0247      0.0016      0.0000      0.0000
         3         0.0000      0.0000      0.0000      0.0000      0.1173      0.0709
         4         0.0000      0.0000      0.0000      0.0000      0.2679      0.0908
         5         0.0000      0.0000      0.0000      0.0000      0.3790      0.2544
         6         0.0000      0.0000      0.0000      0.0000     -0.2018      0.2220
 <0|del|b> * <b|rxdel|0> + <0|del|b> * <b|delr+rdel|0>
 Rotatory Strengths (R) in cgs (10**-40 erg-esu-cm/Gauss)
       state          XX          YY          ZZ    R(velocity)    E-M Angle
         1         0.0002     -0.0004      0.0002      0.0000       90.00
         2        -0.0005     -0.0007      0.0005     -0.0002       90.00
         3         0.0000      0.0005      0.0003      0.0003       90.00
         4         0.0001     -0.0007     -0.0001     -0.0002       90.00
         5         0.0005     -0.0017      0.0001     -0.0004       90.00
         6        -0.0002      0.0013      0.0001      0.0004       90.00
 1/2[<0|r|b>*<b|rxdel|0> + (<0|rxdel|b>*<b|r|0>)*]
 Rotatory Strengths (R) in cgs (10**-40 erg-esu-cm/Gauss)
       state          XX          YY          ZZ     R(length)
         1        -0.0002      0.0007     -0.0006     -0.0001
         2        -0.0002     -0.0004      0.0000     -0.0002
         3         0.0011      0.0004     -0.0008      0.0002
         4        -0.0006      0.0000     -0.0003     -0.0003
         5        -0.0016      0.0001      0.0002     -0.0004
         6         0.0013     -0.0008      0.0011      0.0005
  1/2[<0|del|b>*<b|r|0> + (<0|r|b>*<b|del|0>)*] (Au)
       state          X           Y           Z        Dip. S.   Osc.(frdel)
         1        -0.0113     -0.0837      0.0000      0.0950      0.0633
         2        -0.1194     -0.0108      0.0000      0.1302      0.0868
         3         0.0000      0.0000     -0.0051      0.0051      0.0034
         4         0.0000      0.0000     -0.0065      0.0065      0.0043
         5         0.0000      0.0000     -0.0003      0.0003      0.0002
         6         0.0000      0.0000     -0.0049      0.0049      0.0033

 Excitation energies and oscillator strengths:
 
 Excited State   1:      Singlet-A      5.1089 eV  242.68 nm  f=0.0606  <S**2>=0.000
      30 -> 32        -0.40047
      30 -> 36         0.14601
      31 -> 32         0.50954
      31 -> 36         0.20495
 This state for optimization and/or second-order correction.
 Total Energy, E(TD-HF/TD-KS) =  -363.515595239    
 Copying the excited state density for this state as the 1-particle RhoCI density.
 
 Excited State   2:      Singlet-A      5.1338 eV  241.51 nm  f=0.0915  <S**2>=0.000
      30 -> 32         0.42524
      30 -> 36         0.12111
      31 -> 32         0.43804
      31 -> 36        -0.31024
 
 Excited State   3:      Singlet-A      5.6435 eV  219.69 nm  f=0.0044  <S**2>=0.000
      29 -> 33         0.10174
      31 -> 33         0.67329
      31 -> 40         0.10829
 
 Excited State   4:      Singlet-A      6.1800 eV  200.62 nm  f=0.0042  <S**2>=0.000
      27 -> 33        -0.10028
      30 -> 33         0.59125
      30 -> 34        -0.10871
      30 -> 40         0.11669
      31 -> 34         0.28045
      31 -> 35        -0.10106
 
 Excited State   5:      Singlet-A      6.3106 eV  196.47 nm  f=0.0002  <S**2>=0.000
      30 -> 33        -0.28670
      31 -> 34         0.53188
      31 -> 35        -0.27606
 
 Excited State   6:      Singlet-A      6.3527 eV  195.17 nm  f=0.0034  <S**2>=0.000
      31 -> 34         0.27939
      31 -> 35         0.57370
      31 -> 37         0.12640
      31 -> 43         0.13947
 SavETr:  write IOETrn=   770 NScale= 10 NData=  16 NLR=1 NState=    6 LETran=     118.
 Leave Link  914 at Thu Nov 05 16:39:05 2015, MaxMem=    33554432 cpu:       477.0
 (Enter C:\G09W\l108.exe)
 Scan completed.

 Summary of the potential surface scan:
   N      B1         B7          SCF          CIS    
 ----  ---------  ---------  -----------  -----------
    1     1.3650     1.3550   -363.70266   -363.51321
    2     1.3660     1.3550   -363.70274   -363.51339
    3     1.3670     1.3550   -363.70281   -363.51358
    4     1.3680     1.3550   -363.70288   -363.51378
    5     1.3690     1.3550   -363.70294   -363.51398
    6     1.3700     1.3550   -363.70300   -363.51418
    7     1.3710     1.3550   -363.70306   -363.51438
    8     1.3720     1.3550   -363.70311   -363.51458
    9     1.3730     1.3550   -363.70316   -363.51477
   10     1.3740     1.3550   -363.70320   -363.51496
   11     1.3750     1.3550   -363.70324   -363.51515
   12     1.3650     1.3560   -363.70268   -363.51332
   13     1.3660     1.3560   -363.70276   -363.51347
   14     1.3670     1.3560   -363.70283   -363.51365
   15     1.3680     1.3560   -363.70290   -363.51384
   16     1.3690     1.3560   -363.70296   -363.51403
   17     1.3700     1.3560   -363.70302   -363.51423
   18     1.3710     1.3560   -363.70308   -363.51443
   19     1.3720     1.3560   -363.70313   -363.51462
   20     1.3730     1.3560   -363.70318   -363.51481
   21     1.3740     1.3560   -363.70322   -363.51500
   22     1.3750     1.3560   -363.70326   -363.51519
   23     1.3650     1.3570   -363.70269   -363.51343
   24     1.3660     1.3570   -363.70277   -363.51357
   25     1.3670     1.3570   -363.70285   -363.51373
   26     1.3680     1.3570   -363.70291   -363.51391
   27     1.3690     1.3570   -363.70298   -363.51409
   28     1.3700     1.3570   -363.70304   -363.51428
   29     1.3710     1.3570   -363.70310   -363.51447
   30     1.3720     1.3570   -363.70315   -363.51467
   31     1.3730     1.3570   -363.70320   -363.51486
   32     1.3740     1.3570   -363.70324   -363.51504
   33     1.3750     1.3570   -363.70328   -363.51523
   34     1.3650     1.3580   -363.70271   -363.51355
   35     1.3660     1.3580   -363.70279   -363.51368
   36     1.3670     1.3580   -363.70286   -363.51382
   37     1.3680     1.3580   -363.70293   -363.51398
   38     1.3690     1.3580   -363.70299   -363.51416
   39     1.3700     1.3580   -363.70305   -363.51434
   40     1.3710     1.3580   -363.70311   -363.51452
   41     1.3720     1.3580   -363.70316   -363.51471
   42     1.3730     1.3580   -363.70321   -363.51490
   43     1.3740     1.3580   -363.70326   -363.51509
   44     1.3750     1.3580   -363.70330   -363.51527
   45     1.3650     1.3590   -363.70272   -363.51367
   46     1.3660     1.3590   -363.70280   -363.51379
   47     1.3670     1.3590   -363.70287   -363.51392
   48     1.3680     1.3590   -363.70294   -363.51407
   49     1.3690     1.3590   -363.70301   -363.51423
   50     1.3700     1.3590   -363.70307   -363.51440
   51     1.3710     1.3590   -363.70312   -363.51458
   52     1.3720     1.3590   -363.70318   -363.51476
   53     1.3730     1.3590   -363.70322   -363.51494
   54     1.3740     1.3590   -363.70327   -363.51513
   55     1.3750     1.3590   -363.70331   -363.51531
   56     1.3650     1.3600   -363.70273   -363.51379
   57     1.3660     1.3600   -363.70281   -363.51391
   58     1.3670     1.3600   -363.70288   -363.51403
   59     1.3680     1.3600   -363.70295   -363.51417
   60     1.3690     1.3600   -363.70301   -363.51431
   61     1.3700     1.3600   -363.70308   -363.51447
   62     1.3710     1.3600   -363.70313   -363.51464
   63     1.3720     1.3600   -363.70319   -363.51481
   64     1.3730     1.3600   -363.70324   -363.51499
   65     1.3740     1.3600   -363.70328   -363.51517
   66     1.3750     1.3600   -363.70332   -363.51535
   67     1.3650     1.3610   -363.70273   -363.51392
   68     1.3660     1.3610   -363.70281   -363.51403
   69     1.3670     1.3610   -363.70289   -363.51414
   70     1.3680     1.3610   -363.70296   -363.51427
   71     1.3690     1.3610   -363.70302   -363.51440
   72     1.3700     1.3610   -363.70308   -363.51455
   73     1.3710     1.3610   -363.70314   -363.51471
   74     1.3720     1.3610   -363.70319   -363.51487
   75     1.3730     1.3610   -363.70324   -363.51504
   76     1.3740     1.3610   -363.70329   -363.51522
   77     1.3750     1.3610   -363.70333   -363.51539
   78     1.3650     1.3620   -363.70274   -363.51404
   79     1.3660     1.3620   -363.70282   -363.51415
   80     1.3670     1.3620   -363.70289   -363.51426
   81     1.3680     1.3620   -363.70296   -363.51438
   82     1.3690     1.3620   -363.70303   -363.51450
   83     1.3700     1.3620   -363.70309   -363.51464
   84     1.3710     1.3620   -363.70315   -363.51478
   85     1.3720     1.3620   -363.70320   -363.51494
   86     1.3730     1.3620   -363.70325   -363.51510
   87     1.3740     1.3620   -363.70330   -363.51527
   88     1.3750     1.3620   -363.70334   -363.51544
   89     1.3650     1.3630   -363.70274   -363.51416
   90     1.3660     1.3630   -363.70282   -363.51427
   91     1.3670     1.3630   -363.70289   -363.51438
   92     1.3680     1.3630   -363.70296   -363.51449
   93     1.3690     1.3630   -363.70303   -363.51460
   94     1.3700     1.3630   -363.70309   -363.51473
   95     1.3710     1.3630   -363.70315   -363.51486
   96     1.3720     1.3630   -363.70320   -363.51501
   97     1.3730     1.3630   -363.70325   -363.51516
   98     1.3740     1.3630   -363.70330   -363.51532
   99     1.3750     1.3630   -363.70334   -363.51549
  100     1.3650     1.3640   -363.70274   -363.51429
  101     1.3660     1.3640   -363.70282   -363.51439
  102     1.3670     1.3640   -363.70289   -363.51449
  103     1.3680     1.3640   -363.70296   -363.51460
  104     1.3690     1.3640   -363.70303   -363.51471
  105     1.3700     1.3640   -363.70309   -363.51483
  106     1.3710     1.3640   -363.70315   -363.51495
  107     1.3720     1.3640   -363.70321   -363.51509
  108     1.3730     1.3640   -363.70326   -363.51523
  109     1.3740     1.3640   -363.70330   -363.51538
  110     1.3750     1.3640   -363.70334   -363.51554
  111     1.3650     1.3650   -363.70273   -363.51441
  112     1.3660     1.3650   -363.70281   -363.51451
  113     1.3670     1.3650   -363.70289   -363.51461
  114     1.3680     1.3650   -363.70296   -363.51471
  115     1.3690     1.3650   -363.70303   -363.51482
  116     1.3700     1.3650   -363.70309   -363.51493
  117     1.3710     1.3650   -363.70315   -363.51505
  118     1.3720     1.3650   -363.70320   -363.51517
  119     1.3730     1.3650   -363.70326   -363.51530
  120     1.3740     1.3650   -363.70330   -363.51545
  121     1.3750     1.3650   -363.70334   -363.51560
 ----  ---------  ---------  -----------  -----------
  
 Leave Link  108 at Thu Nov 05 16:39:05 2015, MaxMem=    33554432 cpu:         0.0
 (Enter C:\G09W\l9999.exe)
 1|1|UNPC-CHEMCART-10425|Scan|RwB97XD TD-FC|6-31+G(d)|C8H7N1|KVORWERK|0
 5-Nov-2015|1||#p TD=(nstates=6, singlets) wb97xd/6-31+G(d) Scan||indol
 e relaxed optimization starting from S0 opt and optimizing S2||0,1|C|C
 ,1,B1|C,2,B2,1,A2|C,1,B3,2,A3,3,D3,0|C,4,B4,1,A4,2,D4,0|C,5,B5,4,A5,1,
 D5,0|C,3,B6,2,A6,1,D6,0|C,7,B7,3,A7,2,D7,0|N,6,B8,5,A8,4,D8,0|H,9,B9,6
 ,A9,5,D9,0|H,1,B10,2,A10,3,D10,0|H,2,B11,1,A11,3,D11,0|H,4,B12,1,A12,2
 ,D12,0|H,5,B13,4,A13,1,D13,0|H,7,B14,3,A14,2,D14,0|H,8,B15,7,A15,3,D15
 ,0||B1=1.365,s,10,0.001|B2=1.40443|A2=119.06897|B3=1.40975|A3=121.0656
 |D3=0.|B4=1.38544|A4=121.21218|D4=359.99995|B5=1.39846|A5=117.42644|D5
 =0.00005|B6=1.43749|A6=134.26655|D6=180.00015|B7=1.355,s,10,0.001|A7=1
 06.91711|D7=180.00028|B8=1.37732|A8=130.32223|D8=179.99989|B9=1.00658|
 A9=125.47355|D9=359.99992|B10=1.08624|A10=119.72205|D10=179.99989|B11=
 1.08676|A11=120.55611|D11=180.00011|B12=1.0863|A12=119.36875|D12=180.|
 B13=1.0868|A13=121.13514|D13=179.99999|B14=1.08122|A14=127.12293|D14=0
 .00005|B15=1.08122|A15=130.03307|D15=179.99976||Version=EM64W-G09RevD.
 01|HF=-363.7026622,-363.7027391,-363.7028117,-363.70288,-363.7029441,-
 363.7030039,-363.7030596,-363.7031111,-363.7031584,-363.7032015,-363.7
 032406,-363.7026797,-363.7027569,-363.7028298,-363.7028985,-363.702962
 9,-363.703023,-363.703079,-363.7031308,-363.7031784,-363.7032218,-363.
 7032612,-363.7026949,-363.7027724,-363.7028457,-363.7029146,-363.70297
 93,-363.7030398,-363.7030961,-363.7031481,-363.703196,-363.7032398,-36
 3.7032794,-363.7027078,-363.7027856,-363.7028592,-363.7029284,-363.702
 9935,-363.7030542,-363.7031108,-363.7031632,-363.7032114,-363.7032554,
 -363.7032954,-363.7027184,-363.7027965,-363.7028704,-363.70294,-363.70
 30053,-363.7030664,-363.7031233,-363.7031759,-363.7032245,-363.7032688
 ,-363.703309,-363.7027266,-363.7028051,-363.7028793,-363.7029492,-363.
 7030148,-363.7030763,-363.7031334,-363.7031864,-363.7032352,-363.70327
 99,-363.7033204,-363.7027326,-363.7028114,-363.7028859,-363.7029562,-3
 63.7030221,-363.7030838,-363.7031413,-363.7031946,-363.7032437,-363.70
 32887,-363.7033295,-363.7027364,-363.7028155,-363.7028903,-363.7029608
 ,-363.7030271,-363.7030891,-363.7031469,-363.7032005,-363.7032499,-363
 .7032952,-363.7033363,-363.7027378,-363.7028173,-363.7028924,-363.7029
 633,-363.7030299,-363.7030922,-363.7031503,-363.7032042,-363.7032539,-
 363.7032994,-363.7033408,-363.702737,-363.7028168,-363.7028923,-363.70
 29634,-363.7030303,-363.703093,-363.7031514,-363.7032056,-363.7032556,
 -363.7033015,-363.7033432,-363.702734,-363.7028141,-363.7028899,-363.7
 029614,-363.7030286,-363.7030916,-363.7031503,-363.7032048,-363.703255
 1,-363.7033013,-363.7033432|RMSD=6.316e-009,5.512e-009,5.422e-009,5.33
 9e-009,5.420e-009,5.386e-009,5.468e-009,5.341e-009,5.089e-009,5.299e-0
 09,5.402e-009,6.435e-009,5.690e-009,5.455e-009,5.450e-009,5.286e-009,5
 .500e-009,5.351e-009,5.409e-009,5.211e-009,5.342e-009,5.239e-009,6.399
 e-009,5.644e-009,5.421e-009,5.474e-009,5.407e-009,5.466e-009,5.334e-00
 9,5.325e-009,5.285e-009,5.227e-009,5.202e-009,6.407e-009,5.400e-009,5.
 502e-009,5.480e-009,5.481e-009,5.423e-009,5.392e-009,5.327e-009,5.264e
 -009,5.371e-009,5.376e-009,6.572e-009,5.589e-009,5.405e-009,5.384e-009
 ,5.403e-009,5.277e-009,5.309e-009,5.292e-009,5.411e-009,5.229e-009,5.2
 05e-009,6.451e-009,5.389e-009,5.549e-009,5.419e-009,5.389e-009,5.465e-
 009,5.568e-009,5.386e-009,5.269e-009,5.522e-009,5.393e-009,6.385e-009,
 5.461e-009,5.749e-009,5.418e-009,5.402e-009,5.313e-009,5.310e-009,5.50
 3e-009,5.302e-009,5.396e-009,5.292e-009,6.447e-009,5.410e-009,5.465e-0
 09,5.524e-009,5.471e-009,5.580e-009,5.471e-009,5.416e-009,5.195e-009,5
 .489e-009,5.456e-009,6.375e-009,5.618e-009,5.407e-009,5.436e-009,5.284
 e-009,5.359e-009,5.407e-009,5.521e-009,5.413e-009,5.428e-009,5.179e-00
 9,6.524e-009,5.484e-009,5.551e-009,5.449e-009,5.342e-009,5.386e-009,5.
 380e-009,5.195e-009,5.275e-009,5.457e-009,5.288e-009,6.422e-009,5.377e
 -009,5.609e-009,5.495e-009,5.386e-009,5.535e-009,5.549e-009,5.384e-009
 ,5.321e-009,5.293e-009,5.335e-009|PG=C01 [X(C8H7N1)]||@


 Boundary, n.  In political geography, an imaginary
 line between two nations, separating the imaginary
 rights of one from the imaginary rights of another.
                               -- Ambrose Bierce
 Job cpu time:       0 days 19 hours 10 minutes 28.0 seconds.
 File lengths (MBytes):  RWF=     75 Int=      0 D2E=      0 Chk=     11 Scr=      1
 Normal termination of Gaussian 09 at Thu Nov 05 16:39:05 2015.
